 Entering Link 1 = C:\G16W\l1.exe PID=      9452.
  
 Copyright (c) 1988-2019, Gaussian, Inc.  All Rights Reserved.
  
 This is part of the Gaussian(R) 16 program.  It is based on
 the Gaussian(R) 09 system (copyright 2009, Gaussian, Inc.),
 the Gaussian(R) 03 system (copyright 2003, Gaussian, Inc.),
 the Gaussian(R) 98 system (copyright 1998, Gaussian, Inc.),
 the Gaussian(R) 94 system (copyright 1995, Gaussian, Inc.),
 the Gaussian 92(TM) system (copyright 1992, Gaussian, Inc.),
 the Gaussian 90(TM) system (copyright 1990, Gaussian, Inc.),
 the Gaussian 88(TM) system (copyright 1988, Gaussian, Inc.),
 the Gaussian 86(TM) system (copyright 1986, Carnegie Mellon
 University), and the Gaussian 82(TM) system (copyright 1983,
 Carnegie Mellon University). Gaussian is a federally registered
 trademark of Gaussian, Inc.
  
 This software contains proprietary and confidential information,
 including trade secrets, belonging to Gaussian, Inc.
  
 This software is provided under written license and may be
 used, copied, transmitted, or stored only in accord with that
 written license.
  
 The following legend is applicable only to US Government
 contracts under FAR:
  
                    RESTRICTED RIGHTS LEGEND
  
 Use, reproduction and disclosure by the US Government is
 subject to restrictions as set forth in subparagraphs (a)
 and (c) of the Commercial Computer Software - Restricted
 Rights clause in FAR 52.227-19.
  
 Gaussian, Inc.
 340 Quinnipiac St., Bldg. 40, Wallingford CT 06492
  
  
 ---------------------------------------------------------------
 Warning -- This program may not be used in any manner that
 competes with the business of Gaussian, Inc. or will provide
 assistance to any competitor of Gaussian, Inc.  The licensee
 of this program is prohibited from giving any competitor of
 Gaussian, Inc. access to this program.  By using this program,
 the user acknowledges that Gaussian, Inc. is engaged in the
 business of creating and licensing software in the field of
 computational chemistry and represents and warrants to the
 licensee that it is not a competitor of Gaussian, Inc. and that
 it will not use this program in any manner prohibited above.
 ---------------------------------------------------------------
  

 Cite this work as:
 Gaussian 16, Revision C.01,
 M. J. Frisch, G. W. Trucks, H. B. Schlegel, G. E. Scuseria, 
 M. A. Robb, J. R. Cheeseman, G. Scalmani, V. Barone, 
 G. A. Petersson, H. Nakatsuji, X. Li, M. Caricato, A. V. Marenich, 
 J. Bloino, B. G. Janesko, R. Gomperts, B. Mennucci, H. P. Hratchian, 
 J. V. Ortiz, A. F. Izmaylov, J. L. Sonnenberg, D. Williams-Young, 
 F. Ding, F. Lipparini, F. Egidi, J. Goings, B. Peng, A. Petrone, 
 T. Henderson, D. Ranasinghe, V. G. Zakrzewski, J. Gao, N. Rega, 
 G. Zheng, W. Liang, M. Hada, M. Ehara, K. Toyota, R. Fukuda, 
 J. Hasegawa, M. Ishida, T. Nakajima, Y. Honda, O. Kitao, H. Nakai, 
 T. Vreven, K. Throssell, J. A. Montgomery, Jr., J. E. Peralta, 
 F. Ogliaro, M. J. Bearpark, J. J. Heyd, E. N. Brothers, K. N. Kudin, 
 V. N. Staroverov, T. A. Keith, R. Kobayashi, J. Normand, 
 K. Raghavachari, A. P. Rendell, J. C. Burant, S. S. Iyengar, 
 J. Tomasi, M. Cossi, J. M. Millam, M. Klene, C. Adamo, R. Cammi, 
 J. W. Ochterski, R. L. Martin, K. Morokuma, O. Farkas, 
 J. B. Foresman, and D. J. Fox, Gaussian, Inc., Wallingford CT, 2019.
 
 ******************************************
 Gaussian 16:  EM64W-G16RevC.01 30-May-2019
                12-May-2023 
 ******************************************
 %chk=C:\Calculation\20230510.2\(CO)1(H2O)1\(CO)1(H2O)1(2).chk
 ----------------------------------------------
 # opt freq b3lyp/aug-cc-pvdz geom=connectivity
 ----------------------------------------------
 1/18=20,19=15,26=3,38=1,57=2/1,3;
 2/9=110,12=2,17=6,18=5,40=1/2;
 3/5=16,7=10,11=2,25=1,30=1,71=1,74=-5/1,2,3;
 4//1;
 5/5=2,38=5/2;
 6/7=2,8=2,9=2,10=2,28=1/1;
 7//1,2,3,16;
 1/18=20,19=15,26=3/3(2);
 2/9=110/2;
 99//99;
 2/9=110/2;
 3/5=16,7=10,11=2,25=1,30=1,71=1,74=-5/1,2,3;
 4/5=5,16=3,69=1/1;
 5/5=2,38=5/2;
 7//1,2,3,16;
 1/18=20,19=15,26=3/3(-5);
 2/9=110/2;
 6/7=2,8=2,9=2,10=2,19=2,28=1/1;
 99/9=1/99;
 -------------------
 Title Card Required
 -------------------
 Symbolic Z-matrix:
 Charge =  0 Multiplicity = 1
 C                     2.26175   0.09671   0.00586 
 O                     1.14187  -0.08856  -0.00473 
 O                    -2.37998  -0.02991   0.00678 
 H                    -1.55322  -0.5306   -0.02881 
 H                    -2.11236   0.89802  -0.02273 
 
 Add virtual bond connecting atoms H4         and O2         Dist= 5.16D+00.

 GradGradGradGradGradGradGradGradGradGradGradGradGradGradGradGradGradGrad
 Berny optimization.
 Initialization pass.
                           ----------------------------
                           !    Initial Parameters    !
                           ! (Angstroms and Degrees)  !
 --------------------------                            --------------------------
 ! Name  Definition              Value          Derivative Info.                !
 --------------------------------------------------------------------------------
 ! R1    R(1,2)                  1.1352         estimate D2E/DX2                !
 ! R2    R(2,4)                  2.7312         estimate D2E/DX2                !
 ! R3    R(3,4)                  0.9672         estimate D2E/DX2                !
 ! R4    R(3,5)                  0.9662         estimate D2E/DX2                !
 ! A1    A(4,3,5)              105.027          estimate D2E/DX2                !
 ! A2    A(2,4,3)              139.4096         estimate D2E/DX2                !
 ! A3    L(1,2,4,5,-1)         179.9209         estimate D2E/DX2                !
 ! A4    L(1,2,4,5,-2)         180.065          estimate D2E/DX2                !
 ! D1    D(5,3,4,2)              5.6208         estimate D2E/DX2                !
 --------------------------------------------------------------------------------
 Trust Radius=3.00D-01 FncErr=1.00D-07 GrdErr=1.00D-06 EigMax=2.50D+02 EigMin=1.00D-04
 Number of steps in this run=     20 maximum allowed number of steps=    100.
 GradGradGradGradGradGradGradGradGradGradGradGradGradGradGradGradGradGrad

                          Input orientation:                          
 ---------------------------------------------------------------------
 Center     Atomic      Atomic             Coordinates (Angstroms)
 Number     Number       Type             X           Y           Z
 ---------------------------------------------------------------------
      1          6           0        2.261749    0.096708    0.005858
      2          8           0        1.141868   -0.088555   -0.004729
      3          8           0       -2.379982   -0.029905    0.006778
      4          1           0       -1.553222   -0.530595   -0.028809
      5          1           0       -2.112361    0.898023   -0.022731
 ---------------------------------------------------------------------
                    Distance matrix (angstroms):
                    1          2          3          4          5
     1  C    0.000000
     2  O    1.135151   0.000000
     3  O    4.643458   3.522357   0.000000
     4  H    3.866357   2.731207   0.967207   0.000000
     5  H    4.446995   3.400539   0.966200   1.534152   0.000000
 Stoichiometry    CH2O2
 Framework group  C1[X(CH2O2)]
 Deg. of freedom     9
 Full point group                 C1      NOp   1
 Largest Abelian subgroup         C1      NOp   1
 Largest concise Abelian subgroup C1      NOp   1
                         Standard orientation:                         
 ---------------------------------------------------------------------
 Center     Atomic      Atomic             Coordinates (Angstroms)
 Number     Number       Type             X           Y           Z
 ---------------------------------------------------------------------
      1          6           0       -2.261749    0.096708   -0.005858
      2          8           0       -1.141868   -0.088555    0.004729
      3          8           0        2.379982   -0.029905   -0.006778
      4          1           0        1.553222   -0.530595    0.028809
      5          1           0        2.112361    0.898023    0.022731
 ---------------------------------------------------------------------
 Rotational constants (GHZ):         376.6935418           2.8156256           2.7948204
 Standard basis: Aug-CC-pVDZ (5D, 7F)
 There are    93 symmetry adapted cartesian basis functions of A   symmetry.
 There are    87 symmetry adapted basis functions of A   symmetry.
    87 basis functions,   151 primitive gaussians,    93 cartesian basis functions
    12 alpha electrons       12 beta electrons
       nuclear repulsion energy        50.8949806821 Hartrees.
 NAtoms=    5 NActive=    5 NUniq=    5 SFac= 1.00D+00 NAtFMM=   60 NAOKFM=F Big=F
 Integral buffers will be    131072 words long.
 Raffenetti 2 integral format.
 Two-electron integral symmetry is turned on.
 One-electron integrals computed using PRISM.
 NBasis=    87 RedAO= T EigKep=  1.93D-03  NBF=    87
 NBsUse=    87 1.00D-06 EigRej= -1.00D+00 NBFU=    87
 ExpMin= 2.97D-02 ExpMax= 1.17D+04 ExpMxC= 4.01D+02 IAcc=3 IRadAn=         5 AccDes= 0.00D+00
 Harris functional with IExCor=  402 and IRadAn=       5 diagonalized for initial guess.
 HarFok:  IExCor=  402 AccDes= 0.00D+00 IRadAn=         5 IDoV= 1 UseB2=F ITyADJ=14
 ICtDFT=  3500011 ScaDFX=  1.000000  1.000000  1.000000  1.000000
 FoFCou: FMM=F IPFlag=           0 FMFlag=      100000 FMFlg1=           0
         NFxFlg=           0 DoJE=T BraDBF=F KetDBF=T FulRan=T
         wScrn=  0.000000 ICntrl=       500 IOpCl=  0 I1Cent=   200000004 NGrid=           0
         NMat0=    1 NMatS0=      1 NMatT0=    0 NMatD0=    1 NMtDS0=    0 NMtDT0=    0
 Petite list used in FoFCou.
 Keep R1 ints in memory in canonical form, NReq=8247791.
 Requested convergence on RMS density matrix=1.00D-08 within 128 cycles.
 Requested convergence on MAX density matrix=1.00D-06.
 Requested convergence on             energy=1.00D-06.
 No special actions if energy rises.
 SCF Done:  E(RB3LYP) =  -189.775639914     A.U. after   10 cycles
            NFock= 10  Conv=0.21D-08     -V/T= 2.0061

 **********************************************************************

            Population analysis using the SCF Density.

 **********************************************************************

 Orbital symmetries:
       Occupied  (A) (A) (A) (A) (A) (A) (A) (A) (A) (A) (A) (A)
       Virtual   (A) (A) (A) (A) (A) (A) (A) (A) (A) (A) (A) (A)
                 (A) (A) (A) (A) (A) (A) (A) (A) (A) (A) (A) (A)
                 (A) (A) (A) (A) (A) (A) (A) (A) (A) (A) (A) (A)
                 (A) (A) (A) (A) (A) (A) (A) (A) (A) (A) (A) (A)
                 (A) (A) (A) (A) (A) (A) (A) (A) (A) (A) (A) (A)
                 (A) (A) (A) (A) (A) (A) (A) (A) (A) (A) (A) (A)
                 (A) (A) (A)
 The electronic state is 1-A.
 Alpha  occ. eigenvalues --  -19.27595 -19.15732 -10.32814  -1.18890  -1.01738
 Alpha  occ. eigenvalues --   -0.60297  -0.53529  -0.49602  -0.49581  -0.39968
 Alpha  occ. eigenvalues --   -0.39332  -0.31917
 Alpha virt. eigenvalues --   -0.05516  -0.05486  -0.01963   0.02091   0.03963
 Alpha virt. eigenvalues --    0.05486   0.05570   0.07076   0.09891   0.11857
 Alpha virt. eigenvalues --    0.13626   0.16335   0.17147   0.17361   0.19447
 Alpha virt. eigenvalues --    0.24109   0.24779   0.26219   0.28168   0.30047
 Alpha virt. eigenvalues --    0.30215   0.33804   0.35227   0.38685   0.44839
 Alpha virt. eigenvalues --    0.45809   0.46111   0.51578   0.54464   0.58373
 Alpha virt. eigenvalues --    0.59229   0.64415   0.67577   0.74437   0.75698
 Alpha virt. eigenvalues --    0.84479   0.85040   0.89327   0.90340   0.94268
 Alpha virt. eigenvalues --    0.95343   0.96277   0.98815   1.11787   1.22680
 Alpha virt. eigenvalues --    1.23324   1.26232   1.35363   1.35481   1.38092
 Alpha virt. eigenvalues --    1.39324   1.39507   1.69729   1.70136   1.74540
 Alpha virt. eigenvalues --    1.75297   1.84316   1.87546   1.92673   2.12771
 Alpha virt. eigenvalues --    2.15691   2.32138   2.44170   2.66226   2.78590
 Alpha virt. eigenvalues --    3.14746   3.15158   3.26001   3.27725   3.29648
 Alpha virt. eigenvalues --    3.31621   3.32482   3.60917   3.70392   3.87476
          Condensed to atoms (all electrons):
               1          2          3          4          5
     1  C    5.307955   0.563956  -0.001747  -0.004992  -0.001355
     2  O    0.563956   7.563089  -0.001926   0.006048   0.001300
     3  O   -0.001747  -0.001926   7.564971   0.305212   0.317696
     4  H   -0.004992   0.006048   0.305212   0.687578  -0.083597
     5  H   -0.001355   0.001300   0.317696  -0.083597   0.675214
 Mulliken charges:
               1
     1  C    0.136183
     2  O   -0.132468
     3  O   -0.184206
     4  H    0.089749
     5  H    0.090741
 Sum of Mulliken charges =   0.00000
 Mulliken charges with hydrogens summed into heavy atoms:
               1
     1  C    0.136183
     2  O   -0.132468
     3  O   -0.003715
 Electronic spatial extent (au):  <R**2>=            381.9707
 Charge=              0.0000 electrons
 Dipole moment (field-independent basis, Debye):
    X=             -1.8296    Y=              0.6651    Z=              0.0989  Tot=              1.9492
 Quadrupole moment (field-independent basis, Debye-Ang):
   XX=            -26.4470   YY=            -15.1374   ZZ=            -18.1366
   XY=              2.5195   XZ=              0.1473   YZ=              0.0182
 Traceless Quadrupole moment (field-independent basis, Debye-Ang):
   XX=             -6.5400   YY=              4.7696   ZZ=              1.7704
   XY=              2.5195   XZ=              0.1473   YZ=              0.0182
 Octapole moment (field-independent basis, Debye-Ang**2):
  XXX=             -5.5492  YYY=              0.7383  ZZZ=              0.0650  XYY=              6.3716
  XXY=              4.3579  XXZ=              0.3281  XZZ=             -0.1341  YZZ=             -0.1234
  YYZ=              0.0710  XYZ=              0.0411
 Hexadecapole moment (field-independent basis, Debye-Ang**3):
 XXXX=           -565.5576 YYYY=            -17.1587 ZZZZ=            -17.5904 XXXY=             22.6144
 XXXZ=             -0.0832 YYYX=              4.9031 YYYZ=              0.0435 ZZZX=             -0.0374
 ZZZY=              0.0144 XXYY=            -69.5072 XXZZ=            -82.2912 YYZZ=             -6.1262
 XXYZ=              0.1615 YYXZ=              0.0743 ZZXY=              0.7563
 N-N= 5.089498068211D+01 E-N=-5.480681290606D+02  KE= 1.886292161218D+02
 Calling FoFJK, ICntrl=      2127 FMM=F ISym2X=0 I1Cent= 0 IOpClX= 0 NMat=1 NMatS=1 NMatT=0.
 ***** Axes restored to original set *****
 -------------------------------------------------------------------
 Center     Atomic                   Forces (Hartrees/Bohr)
 Number     Number              X              Y              Z
 -------------------------------------------------------------------
      1        6          -0.001032827   -0.000229695    0.000006028
      2        8           0.000977303    0.000124224   -0.000027421
      3        8           0.001110658   -0.000293273   -0.000114510
      4        1          -0.001384122    0.002381759    0.000109297
      5        1           0.000328988   -0.001983016    0.000026606
 -------------------------------------------------------------------
 Cartesian Forces:  Max     0.002381759 RMS     0.001002175

 GradGradGradGradGradGradGradGradGradGradGradGradGradGradGradGradGradGrad
 Berny optimization.
 FormGI is forming the generalized inverse of G from B-inverse, IUseBI=4.
 Internal  Forces:  Max     0.002412212 RMS     0.001207820
 Search for a local minimum.
 Step number   1 out of a maximum of   20
 All quantities printed in internal units (Hartrees-Bohrs-Radians)
 Mixed Optimization -- RFO/linear search
 Second derivative matrix not updated -- first step.
 The second derivative matrix:
                          R1        R2        R3        R4        A1
           R1           1.45539
           R2           0.00000   0.01559
           R3           0.00000   0.00000   0.53952
           R4           0.00000   0.00000   0.00000   0.54161
           A1           0.00000   0.00000   0.00000   0.00000   0.16000
           A2           0.00000   0.00000   0.00000   0.00000   0.00000
           A3           0.00000   0.00000   0.00000   0.00000   0.00000
           A4           0.00000   0.00000   0.00000   0.00000   0.00000
           D1           0.00000   0.00000   0.00000   0.00000   0.00000
                          A2        A3        A4        D1
           A2           0.25000
           A3           0.00000   0.00230
           A4           0.00000   0.00000   0.00230
           D1           0.00000   0.00000   0.00000   0.01462
 ITU=  0
     Eigenvalues ---    0.00230   0.00230   0.01462   0.01559   0.16000
     Eigenvalues ---    0.25000   0.53952   0.54161   1.45539
 RFO step:  Lambda=-4.18201447D-05 EMin= 2.30000000D-03
 Linear search not attempted -- first point.
 Iteration  1 RMS(Cart)=  0.02353824 RMS(Int)=  0.00075477
 Iteration  2 RMS(Cart)=  0.00070360 RMS(Int)=  0.00000025
 Iteration  3 RMS(Cart)=  0.00000014 RMS(Int)=  0.00000000
 Variable       Old X    -DE/DX   Delta X   Delta X   Delta X     New X
                                 (Linear)    (Quad)   (Total)
    R1        2.14512  -0.00106   0.00000  -0.00073  -0.00073   2.14440
    R2        5.16123  -0.00007   0.00000  -0.00461  -0.00461   5.15662
    R3        1.82776  -0.00241   0.00000  -0.00447  -0.00447   1.82329
    R4        1.82585  -0.00181   0.00000  -0.00335  -0.00335   1.82250
    A1        1.83307  -0.00158   0.00000  -0.00988  -0.00988   1.82319
    A2        2.43316   0.00062   0.00000   0.00247   0.00247   2.43563
    A3        3.14021   0.00012   0.00000   0.05301   0.05301   3.19322
    A4        3.14273   0.00002   0.00000   0.00663   0.00663   3.14936
    D1        0.09810  -0.00002   0.00000  -0.00138  -0.00138   0.09672
         Item               Value     Threshold  Converged?
 Maximum Force            0.002412     0.000450     NO 
 RMS     Force            0.001208     0.000300     NO 
 Maximum Displacement     0.052599     0.001800     NO 
 RMS     Displacement     0.023568     0.001200     NO 
 Predicted change in Energy=-2.097326D-05
 GradGradGradGradGradGradGradGradGradGradGradGradGradGradGradGradGradGrad

                          Input orientation:                          
 ---------------------------------------------------------------------
 Center     Atomic      Atomic             Coordinates (Angstroms)
 Number     Number       Type             X           Y           Z
 ---------------------------------------------------------------------
      1          6           0        2.265037    0.074416    0.006624
      2          8           0        1.138414   -0.060721   -0.005847
      3          8           0       -2.380584   -0.034676    0.006825
      4          1           0       -1.550448   -0.525146   -0.028275
      5          1           0       -2.114367    0.891803   -0.022960
 ---------------------------------------------------------------------
                    Distance matrix (angstroms):
                    1          2          3          4          5
     1  C    0.000000
     2  O    1.134767   0.000000
     3  O    4.646901   3.519117   0.000000
     4  H    3.862463   2.728768   0.964841   0.000000
     5  H    4.455129   3.389422   0.964427   1.525050   0.000000
 Stoichiometry    CH2O2
 Framework group  C1[X(CH2O2)]
 Deg. of freedom     9
 Full point group                 C1      NOp   1
 Largest Abelian subgroup         C1      NOp   1
 Largest concise Abelian subgroup C1      NOp   1
                         Standard orientation:                         
 ---------------------------------------------------------------------
 Center     Atomic      Atomic             Coordinates (Angstroms)
 Number     Number       Type             X           Y           Z
 ---------------------------------------------------------------------
      1          6           0       -2.265572    0.071160   -0.006904
      2          8           0       -1.138880   -0.063379    0.005780
      3          8           0        2.380104   -0.035547   -0.006903
      4          1           0        1.550221   -0.526390    0.028927
      5          1           0        2.113412    0.890839    0.021488
 ---------------------------------------------------------------------
 Rotational constants (GHZ):         414.9591424           2.8140014           2.7951415
 Standard basis: Aug-CC-pVDZ (5D, 7F)
 There are    93 symmetry adapted cartesian basis functions of A   symmetry.
 There are    87 symmetry adapted basis functions of A   symmetry.
    87 basis functions,   151 primitive gaussians,    93 cartesian basis functions
    12 alpha electrons       12 beta electrons
       nuclear repulsion energy        50.9331894673 Hartrees.
 NAtoms=    5 NActive=    5 NUniq=    5 SFac= 1.00D+00 NAtFMM=   60 NAOKFM=F Big=F
 Integral buffers will be    131072 words long.
 Raffenetti 2 integral format.
 Two-electron integral symmetry is turned on.
 One-electron integrals computed using PRISM.
 NBasis=    87 RedAO= T EigKep=  1.93D-03  NBF=    87
 NBsUse=    87 1.00D-06 EigRej= -1.00D+00 NBFU=    87
 Initial guess from the checkpoint file:  "C:\Calculation\20230510.2\(CO)1(H2O)1\(CO)1(H2O)1(2).chk"
 B after Tr=     0.000000    0.000000    0.000000
         Rot=    0.999998    0.001962   -0.000002   -0.000013 Ang=   0.22 deg.
 ExpMin= 2.97D-02 ExpMax= 1.17D+04 ExpMxC= 4.01D+02 IAcc=3 IRadAn=         5 AccDes= 0.00D+00
 Harris functional with IExCor=  402 and IRadAn=       5 diagonalized for initial guess.
 HarFok:  IExCor=  402 AccDes= 0.00D+00 IRadAn=         5 IDoV= 1 UseB2=F ITyADJ=14
 ICtDFT=  3500011 ScaDFX=  1.000000  1.000000  1.000000  1.000000
 FoFCou: FMM=F IPFlag=           0 FMFlag=      100000 FMFlg1=           0
         NFxFlg=           0 DoJE=T BraDBF=F KetDBF=T FulRan=T
         wScrn=  0.000000 ICntrl=       500 IOpCl=  0 I1Cent=   200000004 NGrid=           0
         NMat0=    1 NMatS0=      1 NMatT0=    0 NMatD0=    1 NMtDS0=    0 NMtDT0=    0
 Petite list used in FoFCou.
 Keep R1 ints in memory in canonical form, NReq=8247791.
 Requested convergence on RMS density matrix=1.00D-08 within 128 cycles.
 Requested convergence on MAX density matrix=1.00D-06.
 Requested convergence on             energy=1.00D-06.
 No special actions if energy rises.
 SCF Done:  E(RB3LYP) =  -189.775661927     A.U. after    9 cycles
            NFock=  9  Conv=0.15D-08     -V/T= 2.0060
 Calling FoFJK, ICntrl=      2127 FMM=F ISym2X=0 I1Cent= 0 IOpClX= 0 NMat=1 NMatS=1 NMatT=0.
 ***** Axes restored to original set *****
 -------------------------------------------------------------------
 Center     Atomic                   Forces (Hartrees/Bohr)
 Number     Number              X              Y              Z
 -------------------------------------------------------------------
      1        6          -0.000132499   -0.000044780    0.000012617
      2        8           0.000078236   -0.000069384   -0.000033005
      3        8          -0.000276803   -0.000348564   -0.000039454
      4        1           0.000348100    0.000221430    0.000050736
      5        1          -0.000017034    0.000241298    0.000009106
 -------------------------------------------------------------------
 Cartesian Forces:  Max     0.000348564 RMS     0.000175650

 GradGradGradGradGradGradGradGradGradGradGradGradGradGradGradGradGradGrad
 Berny optimization.
 Using GEDIIS/GDIIS optimizer.
 FormGI is forming the generalized inverse of G from B-inverse, IUseBI=4.
 Internal  Forces:  Max     0.000595602 RMS     0.000234892
 Search for a local minimum.
 Step number   2 out of a maximum of   20
 All quantities printed in internal units (Hartrees-Bohrs-Radians)
 Mixed Optimization -- En-DIIS/RFO-DIIS
 Update second derivatives using D2CorX and points    1    2
 DE= -2.20D-05 DEPred=-2.10D-05 R= 1.05D+00
 TightC=F SS=  1.41D+00  RLast= 5.49D-02 DXNew= 5.0454D-01 1.6466D-01
 Trust test= 1.05D+00 RLast= 5.49D-02 DXMaxT set to 3.00D-01
 The second derivative matrix:
                          R1        R2        R3        R4        A1
           R1           1.44991
           R2          -0.00184   0.01547
           R3          -0.00071  -0.00422   0.57136
           R4           0.00128  -0.00318   0.02910   0.56753
           A1           0.00008  -0.00277   0.02242   0.02029   0.17572
           A2           0.01514   0.00107   0.03427   0.02573   0.02245
           A3           0.00162   0.00021   0.00289   0.00205   0.00186
           A4           0.00031   0.00003   0.00067   0.00050   0.00044
           D1          -0.00053  -0.00003  -0.00122  -0.00092  -0.00080
                          A2        A3        A4        D1
           A2           0.24085
           A3          -0.00177   0.00204
           A4          -0.00022  -0.00004   0.00229
           D1           0.00030   0.00006   0.00001   0.01461
 ITU=  1  0
 Use linear search instead of GDIIS.
     Eigenvalues ---    0.00197   0.00230   0.01460   0.01537   0.16814
     Eigenvalues ---    0.24079   0.54034   0.60617   1.45011
 RFO step:  Lambda=-4.05231951D-06 EMin= 1.96860823D-03
 Quartic linear search produced a step of  0.05216.
 Iteration  1 RMS(Cart)=  0.01511969 RMS(Int)=  0.00031334
 Iteration  2 RMS(Cart)=  0.00027315 RMS(Int)=  0.00000008
 Iteration  3 RMS(Cart)=  0.00000005 RMS(Int)=  0.00000000
 Variable       Old X    -DE/DX   Delta X   Delta X   Delta X     New X
                                 (Linear)    (Quad)   (Total)
    R1        2.14440  -0.00014  -0.00004  -0.00013  -0.00017   2.14423
    R2        5.15662  -0.00007  -0.00024  -0.00512  -0.00537   5.15126
    R3        1.82329   0.00020  -0.00023   0.00019  -0.00004   1.82324
    R4        1.82250   0.00023  -0.00017   0.00029   0.00012   1.82262
    A1        1.82319   0.00015  -0.00052   0.00057   0.00006   1.82324
    A2        2.43563   0.00060   0.00013   0.00261   0.00274   2.43837
    A3        3.19322   0.00006   0.00277   0.02984   0.03261   3.22583
    A4        3.14936   0.00001   0.00035   0.00587   0.00621   3.15558
    D1        0.09672  -0.00002  -0.00007  -0.00157  -0.00164   0.09508
         Item               Value     Threshold  Converged?
 Maximum Force            0.000596     0.000450     NO 
 RMS     Force            0.000235     0.000300     YES
 Maximum Displacement     0.030994     0.001800     NO 
 RMS     Displacement     0.015146     0.001200     NO 
 Predicted change in Energy=-2.091645D-06
 GradGradGradGradGradGradGradGradGradGradGradGradGradGradGradGradGradGrad

                          Input orientation:                          
 ---------------------------------------------------------------------
 Center     Atomic      Atomic             Coordinates (Angstroms)
 Number     Number       Type             X           Y           Z
 ---------------------------------------------------------------------
      1          6           0        2.267434    0.059793    0.007234
      2          8           0        1.137630   -0.044320   -0.006761
      3          8           0       -2.379971   -0.038148    0.006676
      4          1           0       -1.546019   -0.522105   -0.027722
      5          1           0       -2.121022    0.890456   -0.023061
 ---------------------------------------------------------------------
                    Distance matrix (angstroms):
                    1          2          3          4          5
     1  C    0.000000
     2  O    1.134678   0.000000
     3  O    4.648437   3.517632   0.000000
     4  H    3.857752   2.725929   0.964818   0.000000
     5  H    4.466483   3.390116   0.964491   1.525116   0.000000
 Stoichiometry    CH2O2
 Framework group  C1[X(CH2O2)]
 Deg. of freedom     9
 Full point group                 C1      NOp   1
 Largest Abelian subgroup         C1      NOp   1
 Largest concise Abelian subgroup C1      NOp   1
                         Standard orientation:                         
 ---------------------------------------------------------------------
 Center     Atomic      Atomic             Coordinates (Angstroms)
 Number     Number       Type             X           Y           Z
 ---------------------------------------------------------------------
      1          6           0       -2.267517    0.055615   -0.007687
      2          8           0       -1.137650   -0.047786    0.006577
      3          8           0        2.379946   -0.039557   -0.006941
      4          1           0        1.546283   -0.523914    0.028814
      5          1           0        2.120445    0.888970    0.020224
 ---------------------------------------------------------------------
 Rotational constants (GHZ):         433.6095006           2.8129587           2.7949301
 Standard basis: Aug-CC-pVDZ (5D, 7F)
 There are    93 symmetry adapted cartesian basis functions of A   symmetry.
 There are    87 symmetry adapted basis functions of A   symmetry.
    87 basis functions,   151 primitive gaussians,    93 cartesian basis functions
    12 alpha electrons       12 beta electrons
       nuclear repulsion energy        50.9375562545 Hartrees.
 NAtoms=    5 NActive=    5 NUniq=    5 SFac= 1.00D+00 NAtFMM=   60 NAOKFM=F Big=F
 Integral buffers will be    131072 words long.
 Raffenetti 2 integral format.
 Two-electron integral symmetry is turned on.
 One-electron integrals computed using PRISM.
 NBasis=    87 RedAO= T EigKep=  1.92D-03  NBF=    87
 NBsUse=    87 1.00D-06 EigRej= -1.00D+00 NBFU=    87
 Initial guess from the checkpoint file:  "C:\Calculation\20230510.2\(CO)1(H2O)1\(CO)1(H2O)1(2).chk"
 B after Tr=     0.000000    0.000000    0.000000
         Rot=    0.999999    0.001511   -0.000002    0.000075 Ang=   0.17 deg.
 ExpMin= 2.97D-02 ExpMax= 1.17D+04 ExpMxC= 4.01D+02 IAcc=3 IRadAn=         5 AccDes= 0.00D+00
 Harris functional with IExCor=  402 and IRadAn=       5 diagonalized for initial guess.
 HarFok:  IExCor=  402 AccDes= 0.00D+00 IRadAn=         5 IDoV= 1 UseB2=F ITyADJ=14
 ICtDFT=  3500011 ScaDFX=  1.000000  1.000000  1.000000  1.000000
 FoFCou: FMM=F IPFlag=           0 FMFlag=      100000 FMFlg1=           0
         NFxFlg=           0 DoJE=T BraDBF=F KetDBF=T FulRan=T
         wScrn=  0.000000 ICntrl=       500 IOpCl=  0 I1Cent=   200000004 NGrid=           0
         NMat0=    1 NMatS0=      1 NMatT0=    0 NMatD0=    1 NMtDS0=    0 NMtDT0=    0
 Petite list used in FoFCou.
 Keep R1 ints in memory in canonical form, NReq=8247791.
 Requested convergence on RMS density matrix=1.00D-08 within 128 cycles.
 Requested convergence on MAX density matrix=1.00D-06.
 Requested convergence on             energy=1.00D-06.
 No special actions if energy rises.
 SCF Done:  E(RB3LYP) =  -189.775665328     A.U. after    9 cycles
            NFock=  9  Conv=0.17D-08     -V/T= 2.0060
 Calling FoFJK, ICntrl=      2127 FMM=F ISym2X=0 I1Cent= 0 IOpClX= 0 NMat=1 NMatS=1 NMatT=0.
 ***** Axes restored to original set *****
 -------------------------------------------------------------------
 Center     Atomic                   Forces (Hartrees/Bohr)
 Number     Number              X              Y              Z
 -------------------------------------------------------------------
      1        6           0.000079824   -0.000000630    0.000013499
      2        8          -0.000130420   -0.000121425   -0.000032735
      3        8          -0.000290169   -0.000289453   -0.000038425
      4        1           0.000362243    0.000235366    0.000047342
      5        1          -0.000021477    0.000176142    0.000010319
 -------------------------------------------------------------------
 Cartesian Forces:  Max     0.000362243 RMS     0.000169172

 GradGradGradGradGradGradGradGradGradGradGradGradGradGradGradGradGradGrad
 Berny optimization.
 Using GEDIIS/GDIIS optimizer.
 FormGI is forming the generalized inverse of G from B-inverse, IUseBI=4.
 Internal  Forces:  Max     0.000591174 RMS     0.000223293
 Search for a local minimum.
 Step number   3 out of a maximum of   20
 All quantities printed in internal units (Hartrees-Bohrs-Radians)
 Mixed Optimization -- En-DIIS/RFO-DIIS
 Swapping is turned off.
 Update second derivatives using D2CorX and points    1    2    3
 DE= -3.40D-06 DEPred=-2.09D-06 R= 1.63D+00
 TightC=F SS=  1.41D+00  RLast= 3.38D-02 DXNew= 5.0454D-01 1.0134D-01
 Trust test= 1.63D+00 RLast= 3.38D-02 DXMaxT set to 3.00D-01
 The second derivative matrix:
                          R1        R2        R3        R4        A1
           R1           1.48320
           R2          -0.00474   0.01424
           R3           0.02123  -0.00249   0.57664
           R4           0.00943  -0.00059   0.02616   0.56199
           A1           0.00956  -0.00125   0.02274   0.01723   0.17459
           A2           0.04027   0.01107   0.02077   0.00465   0.01024
           A3          -0.00332   0.00127  -0.00193  -0.00058  -0.00056
           A4           0.00044   0.00023   0.00021   0.00004   0.00013
           D1          -0.00136  -0.00039  -0.00072  -0.00017  -0.00036
                          A2        A3        A4        D1
           A2           0.15916
           A3          -0.01070   0.00251
           A4          -0.00193  -0.00015   0.00226
           D1           0.00318   0.00036   0.00007   0.01451
 ITU=  1  1  0
     Eigenvalues ---    0.00128   0.00235   0.01341   0.01474   0.15453
     Eigenvalues ---    0.17668   0.54232   0.59862   1.48517
 En-DIIS/RFO-DIIS/Sim-DIIS IScMMF=       -3 using points:     3    2
 RFO step:  Lambda=-7.74149961D-06.
 DidBck=F Rises=F RFO-DIIS coefs:    2.78265   -1.78265
 Iteration  1 RMS(Cart)=  0.02665910 RMS(Int)=  0.00117162
 Iteration  2 RMS(Cart)=  0.00093197 RMS(Int)=  0.00000235
 Iteration  3 RMS(Cart)=  0.00000179 RMS(Int)=  0.00000000
 Iteration  4 RMS(Cart)=  0.00000000 RMS(Int)=  0.00000000
 Variable       Old X    -DE/DX   Delta X   Delta X   Delta X     New X
                                 (Linear)    (Quad)   (Total)
    R1        2.14423   0.00008  -0.00030   0.00016  -0.00014   2.14409
    R2        5.15126  -0.00007  -0.00956  -0.00774  -0.01731   5.13395
    R3        1.82324   0.00021  -0.00008   0.00021   0.00013   1.82337
    R4        1.82262   0.00016   0.00021   0.00003   0.00024   1.82287
    A1        1.82324   0.00013   0.00010   0.00009   0.00019   1.82343
    A2        2.43837   0.00059   0.00489   0.00405   0.00894   2.44732
    A3        3.22583   0.00002   0.05813  -0.00298   0.05516   3.28099
    A4        3.15558   0.00001   0.01108   0.00654   0.01762   3.17319
    D1        0.09508  -0.00002  -0.00293  -0.00236  -0.00529   0.08979
         Item               Value     Threshold  Converged?
 Maximum Force            0.000591     0.000450     NO 
 RMS     Force            0.000223     0.000300     YES
 Maximum Displacement     0.052104     0.001800     NO 
 RMS     Displacement     0.027039     0.001200     NO 
 Predicted change in Energy=-3.885261D-06
 GradGradGradGradGradGradGradGradGradGradGradGradGradGradGradGradGradGrad

                          Input orientation:                          
 ---------------------------------------------------------------------
 Center     Atomic      Atomic             Coordinates (Angstroms)
 Number     Number       Type             X           Y           Z
 ---------------------------------------------------------------------
      1          6           0        2.268908    0.034033    0.008668
      2          8           0        1.135577   -0.016747   -0.009000
      3          8           0       -2.377251   -0.044927    0.005985
      4          1           0       -1.535101   -0.514768   -0.026212
      5          1           0       -2.134082    0.888087   -0.023074
 ---------------------------------------------------------------------
                    Distance matrix (angstroms):
                    1          2          3          4          5
     1  C    0.000000
     2  O    1.134606   0.000000
     3  O    4.646831   3.512973   0.000000
     4  H    3.843551   2.716770   0.964886   0.000000
     5  H    4.485169   3.392579   0.964620   1.525382   0.000000
 Stoichiometry    CH2O2
 Framework group  C1[X(CH2O2)]
 Deg. of freedom     9
 Full point group                 C1      NOp   1
 Largest Abelian subgroup         C1      NOp   1
 Largest concise Abelian subgroup C1      NOp   1
                         Standard orientation:                         
 ---------------------------------------------------------------------
 Center     Atomic      Atomic             Coordinates (Angstroms)
 Number     Number       Type             X           Y           Z
 ---------------------------------------------------------------------
      1          6           0       -2.268476    0.028986   -0.009435
      2          8           0       -1.135109   -0.020950    0.008372
      3          8           0        2.377734   -0.046912   -0.006914
      4          1           0        1.535897   -0.517115    0.028059
      5          1           0        2.133957    0.886092    0.016882
 ---------------------------------------------------------------------
 Rotational constants (GHZ):         456.4632503           2.8158169           2.7986758
 Standard basis: Aug-CC-pVDZ (5D, 7F)
 There are    93 symmetry adapted cartesian basis functions of A   symmetry.
 There are    87 symmetry adapted basis functions of A   symmetry.
    87 basis functions,   151 primitive gaussians,    93 cartesian basis functions
    12 alpha electrons       12 beta electrons
       nuclear repulsion energy        50.9570838104 Hartrees.
 NAtoms=    5 NActive=    5 NUniq=    5 SFac= 1.00D+00 NAtFMM=   60 NAOKFM=F Big=F
 Integral buffers will be    131072 words long.
 Raffenetti 2 integral format.
 Two-electron integral symmetry is turned on.
 One-electron integrals computed using PRISM.
 NBasis=    87 RedAO= T EigKep=  1.91D-03  NBF=    87
 NBsUse=    87 1.00D-06 EigRej= -1.00D+00 NBFU=    87
 Initial guess from the checkpoint file:  "C:\Calculation\20230510.2\(CO)1(H2O)1\(CO)1(H2O)1(2).chk"
 B after Tr=     0.000000    0.000000    0.000000
         Rot=    0.999995    0.003219   -0.000003    0.000182 Ang=   0.37 deg.
 ExpMin= 2.97D-02 ExpMax= 1.17D+04 ExpMxC= 4.01D+02 IAcc=3 IRadAn=         5 AccDes= 0.00D+00
 Harris functional with IExCor=  402 and IRadAn=       5 diagonalized for initial guess.
 HarFok:  IExCor=  402 AccDes= 0.00D+00 IRadAn=         5 IDoV= 1 UseB2=F ITyADJ=14
 ICtDFT=  3500011 ScaDFX=  1.000000  1.000000  1.000000  1.000000
 FoFCou: FMM=F IPFlag=           0 FMFlag=      100000 FMFlg1=           0
         NFxFlg=           0 DoJE=T BraDBF=F KetDBF=T FulRan=T
         wScrn=  0.000000 ICntrl=       500 IOpCl=  0 I1Cent=   200000004 NGrid=           0
         NMat0=    1 NMatS0=      1 NMatT0=    0 NMatD0=    1 NMtDS0=    0 NMtDT0=    0
 Petite list used in FoFCou.
 Keep R1 ints in memory in canonical form, NReq=8247791.
 Requested convergence on RMS density matrix=1.00D-08 within 128 cycles.
 Requested convergence on MAX density matrix=1.00D-06.
 Requested convergence on             energy=1.00D-06.
 No special actions if energy rises.
 SCF Done:  E(RB3LYP) =  -189.775670778     A.U. after    9 cycles
            NFock=  9  Conv=0.45D-08     -V/T= 2.0060
 Calling FoFJK, ICntrl=      2127 FMM=F ISym2X=0 I1Cent= 0 IOpClX= 0 NMat=1 NMatS=1 NMatT=0.
 ***** Axes restored to original set *****
 -------------------------------------------------------------------
 Center     Atomic                   Forces (Hartrees/Bohr)
 Number     Number              X              Y              Z
 -------------------------------------------------------------------
      1        6           0.000265187    0.000040715    0.000012542
      2        8          -0.000306711   -0.000177205   -0.000028635
      3        8          -0.000230301   -0.000229049   -0.000038216
      4        1           0.000295376    0.000324647    0.000042599
      5        1          -0.000023551    0.000040893    0.000011710
 -------------------------------------------------------------------
 Cartesian Forces:  Max     0.000324647 RMS     0.000182978

 GradGradGradGradGradGradGradGradGradGradGradGradGradGradGradGradGradGrad
 Berny optimization.
 Using GEDIIS/GDIIS optimizer.
 FormGI is forming the generalized inverse of G from B-inverse, IUseBI=4.
 Internal  Forces:  Max     0.000588285 RMS     0.000222972
 Search for a local minimum.
 Step number   4 out of a maximum of   20
 All quantities printed in internal units (Hartrees-Bohrs-Radians)
 Mixed Optimization -- En-DIIS/RFO-DIIS
 Swapping is turned off.
 Update second derivatives using D2CorX and points    1    2    3    4
 DE= -5.45D-06 DEPred=-3.89D-06 R= 1.40D+00
 TightC=F SS=  1.41D+00  RLast= 6.13D-02 DXNew= 5.0454D-01 1.8396D-01
 Trust test= 1.40D+00 RLast= 6.13D-02 DXMaxT set to 3.00D-01
 The second derivative matrix:
                          R1        R2        R3        R4        A1
           R1           1.49698
           R2          -0.00532   0.01379
           R3           0.01000  -0.00120   0.55907
           R4          -0.00471   0.00076   0.01458   0.55654
           A1           0.00125  -0.00037   0.01323   0.01174   0.16982
           A2           0.04866   0.01473   0.01109  -0.00677   0.00331
           A3          -0.00948   0.00168  -0.00210   0.00119  -0.00017
           A4           0.00017   0.00031   0.00003  -0.00005   0.00002
           D1          -0.00145  -0.00052  -0.00032   0.00022  -0.00009
                          A2        A3        A4        D1
           A2           0.13025
           A3          -0.01509   0.00446
           A4          -0.00262  -0.00010   0.00226
           D1           0.00425   0.00046   0.00009   0.01447
 ITU=  1  1  1  0
     Eigenvalues ---    0.00114   0.00251   0.01275   0.01473   0.13162
     Eigenvalues ---    0.16929   0.54342   0.57322   1.49894
 En-DIIS/RFO-DIIS/Sim-DIIS IScMMF=       -3 using points:     4    3    2
 RFO step:  Lambda=-6.42981483D-06.
 DIIS inversion failure, remove point   3.
 RFO-DIIS uses    2 points instead of    3
 DidBck=F Rises=F RFO-DIIS coefs:    1.75895   -0.75895    0.00000
 Iteration  1 RMS(Cart)=  0.01956232 RMS(Int)=  0.00081404
 Iteration  2 RMS(Cart)=  0.00066027 RMS(Int)=  0.00000164
 Iteration  3 RMS(Cart)=  0.00000157 RMS(Int)=  0.00000000
 Iteration  4 RMS(Cart)=  0.00000000 RMS(Int)=  0.00000000
 Variable       Old X    -DE/DX   Delta X   Delta X   Delta X     New X
                                 (Linear)    (Quad)   (Total)
    R1        2.14409   0.00027  -0.00010   0.00003  -0.00007   2.14402
    R2        5.13395  -0.00007  -0.01314  -0.00936  -0.02249   5.11146
    R3        1.82337   0.00013   0.00010  -0.00003   0.00007   1.82344
    R4        1.82287   0.00003   0.00018  -0.00003   0.00016   1.82302
    A1        1.82343   0.00006   0.00014  -0.00005   0.00009   1.82353
    A2        2.44732   0.00059   0.00679   0.00505   0.01184   2.45915
    A3        3.28099  -0.00006   0.04186  -0.00640   0.03546   3.31644
    A4        3.17319   0.00000   0.01337   0.00748   0.02085   3.19405
    D1        0.08979  -0.00002  -0.00401  -0.00278  -0.00680   0.08299
         Item               Value     Threshold  Converged?
 Maximum Force            0.000588     0.000450     NO 
 RMS     Force            0.000223     0.000300     YES
 Maximum Displacement     0.033951     0.001800     NO 
 RMS     Displacement     0.020041     0.001200     NO 
 Predicted change in Energy=-3.222546D-06
 GradGradGradGradGradGradGradGradGradGradGradGradGradGradGradGradGradGrad

                          Input orientation:                          
 ---------------------------------------------------------------------
 Center     Atomic      Atomic             Coordinates (Angstroms)
 Number     Number       Type             X           Y           Z
 ---------------------------------------------------------------------
      1          6           0        2.267319    0.016066    0.010063
      2          8           0        1.133054    0.000723   -0.011270
      3          8           0       -2.373422   -0.050567    0.004930
      4          1           0       -1.523724   -0.506881   -0.024522
      5          1           0       -2.145175    0.886334   -0.022834
 ---------------------------------------------------------------------
                    Distance matrix (angstroms):
                    1          2          3          4          5
     1  C    0.000000
     2  O    1.134569   0.000000
     3  O    4.641222   3.506889   0.000000
     4  H    3.827097   2.704868   0.964923   0.000000
     5  H    4.497616   3.395766   0.964703   1.525533   0.000000
 Stoichiometry    CH2O2
 Framework group  C1[X(CH2O2)]
 Deg. of freedom     9
 Full point group                 C1      NOp   1
 Largest Abelian subgroup         C1      NOp   1
 Largest concise Abelian subgroup C1      NOp   1
                         Standard orientation:                         
 ---------------------------------------------------------------------
 Center     Atomic      Atomic             Coordinates (Angstroms)
 Number     Number       Type             X           Y           Z
 ---------------------------------------------------------------------
      1          6           0       -2.266827    0.011378   -0.011059
      2          8           0       -1.132547   -0.003098    0.010059
      3          8           0        2.373956   -0.052387   -0.006768
      4          1           0        1.524545   -0.508958    0.026718
      5          1           0        2.145144    0.884573    0.013302
 ---------------------------------------------------------------------
 Rotational constants (GHZ):         463.8315244           2.8229835           2.8060511
 Standard basis: Aug-CC-pVDZ (5D, 7F)
 There are    93 symmetry adapted cartesian basis functions of A   symmetry.
 There are    87 symmetry adapted basis functions of A   symmetry.
    87 basis functions,   151 primitive gaussians,    93 cartesian basis functions
    12 alpha electrons       12 beta electrons
       nuclear repulsion energy        50.9878468930 Hartrees.
 NAtoms=    5 NActive=    5 NUniq=    5 SFac= 1.00D+00 NAtFMM=   60 NAOKFM=F Big=F
 Integral buffers will be    131072 words long.
 Raffenetti 2 integral format.
 Two-electron integral symmetry is turned on.
 One-electron integrals computed using PRISM.
 NBasis=    87 RedAO= T EigKep=  1.90D-03  NBF=    87
 NBsUse=    87 1.00D-06 EigRej= -1.00D+00 NBFU=    87
 Initial guess from the checkpoint file:  "C:\Calculation\20230510.2\(CO)1(H2O)1\(CO)1(H2O)1(2).chk"
 B after Tr=     0.000000    0.000000    0.000000
         Rot=    0.999996    0.002705   -0.000002    0.000182 Ang=   0.31 deg.
 ExpMin= 2.97D-02 ExpMax= 1.17D+04 ExpMxC= 4.01D+02 IAcc=3 IRadAn=         5 AccDes= 0.00D+00
 Harris functional with IExCor=  402 and IRadAn=       5 diagonalized for initial guess.
 HarFok:  IExCor=  402 AccDes= 0.00D+00 IRadAn=         5 IDoV= 1 UseB2=F ITyADJ=14
 ICtDFT=  3500011 ScaDFX=  1.000000  1.000000  1.000000  1.000000
 FoFCou: FMM=F IPFlag=           0 FMFlag=      100000 FMFlg1=           0
         NFxFlg=           0 DoJE=T BraDBF=F KetDBF=T FulRan=T
         wScrn=  0.000000 ICntrl=       500 IOpCl=  0 I1Cent=   200000004 NGrid=           0
         NMat0=    1 NMatS0=      1 NMatT0=    0 NMatD0=    1 NMtDS0=    0 NMtDT0=    0
 Petite list used in FoFCou.
 Keep R1 ints in memory in canonical form, NReq=8247791.
 Requested convergence on RMS density matrix=1.00D-08 within 128 cycles.
 Requested convergence on MAX density matrix=1.00D-06.
 Requested convergence on             energy=1.00D-06.
 No special actions if energy rises.
 SCF Done:  E(RB3LYP) =  -189.775676173     A.U. after    9 cycles
            NFock=  9  Conv=0.40D-08     -V/T= 2.0060
 Calling FoFJK, ICntrl=      2127 FMM=F ISym2X=0 I1Cent= 0 IOpClX= 0 NMat=1 NMatS=1 NMatT=0.
 ***** Axes restored to original set *****
 -------------------------------------------------------------------
 Center     Atomic                   Forces (Hartrees/Bohr)
 Number     Number              X              Y              Z
 -------------------------------------------------------------------
      1        6           0.000373760    0.000058452    0.000010961
      2        8          -0.000405762   -0.000205637   -0.000023526
      3        8          -0.000195654   -0.000184263   -0.000035177
      4        1           0.000255077    0.000377551    0.000036199
      5        1          -0.000027421   -0.000046104    0.000011542
 -------------------------------------------------------------------
 Cartesian Forces:  Max     0.000405762 RMS     0.000205932

 GradGradGradGradGradGradGradGradGradGradGradGradGradGradGradGradGradGrad
 Berny optimization.
 Using GEDIIS/GDIIS optimizer.
 FormGI is forming the generalized inverse of G from B-inverse, IUseBI=4.
 Internal  Forces:  Max     0.000593552 RMS     0.000240533
 Search for a local minimum.
 Step number   5 out of a maximum of   20
 All quantities printed in internal units (Hartrees-Bohrs-Radians)
 Mixed Optimization -- En-DIIS/RFO-DIIS
 Swapping is turned off.
 Update second derivatives using D2CorX and points    1    2    3    4    5
 DE= -5.40D-06 DEPred=-3.22D-06 R= 1.67D+00
 TightC=F SS=  1.41D+00  RLast= 4.88D-02 DXNew= 5.0454D-01 1.4649D-01
 Trust test= 1.67D+00 RLast= 4.88D-02 DXMaxT set to 3.00D-01
 The second derivative matrix:
                          R1        R2        R3        R4        A1
           R1           1.50096
           R2          -0.00322   0.01323
           R3          -0.00835   0.00071   0.55617
           R4          -0.02386   0.00183   0.01777   0.56599
           A1          -0.01073   0.00071   0.01331   0.01567   0.17118
           A2           0.03811   0.01960  -0.00686  -0.02025  -0.00745
           A3          -0.01452   0.00129   0.00270   0.00764   0.00326
           A4          -0.00044   0.00036   0.00004   0.00018   0.00007
           D1          -0.00069  -0.00068   0.00019   0.00043   0.00018
                          A2        A3        A4        D1
           A2           0.09098
           A3          -0.01489   0.00717
           A4          -0.00325   0.00012   0.00226
           D1           0.00568   0.00029   0.00010   0.01443
 ITU=  1  1  1  1  0
     Eigenvalues ---    0.00078   0.00278   0.01118   0.01472   0.09583
     Eigenvalues ---    0.17064   0.54269   0.58079   1.50297
 En-DIIS/RFO-DIIS/Sim-DIIS IScMMF=       -3 using points:     5    4    3    2
 RFO step:  Lambda=-1.74970844D-05.
 DIIS inversion failure, remove point   4.
 DIIS inversion failure, remove point   3.
 RFO-DIIS uses    2 points instead of    4
 DidBck=F Rises=F RFO-DIIS coefs:    3.00000   -2.00000    0.00000    0.00000
 Iteration  1 RMS(Cart)=  0.04205731 RMS(Int)=  0.00503608
 Iteration  2 RMS(Cart)=  0.00482573 RMS(Int)=  0.00009952
 Iteration  3 RMS(Cart)=  0.00009777 RMS(Int)=  0.00000004
 Iteration  4 RMS(Cart)=  0.00000003 RMS(Int)=  0.00000000
 Variable       Old X    -DE/DX   Delta X   Delta X   Delta X     New X
                                 (Linear)    (Quad)   (Total)
    R1        2.14402   0.00037  -0.00014   0.00003  -0.00012   2.14391
    R2        5.11146  -0.00006  -0.04498  -0.02259  -0.06757   5.04389
    R3        1.82344   0.00009   0.00014   0.00018   0.00032   1.82376
    R4        1.82302  -0.00005   0.00032   0.00013   0.00044   1.82347
    A1        1.82353   0.00003   0.00019   0.00043   0.00062   1.82415
    A2        2.45915   0.00059   0.02367   0.01244   0.03611   2.49526
    A3        3.31644  -0.00012   0.07092  -0.00119   0.06972   3.38617
    A4        3.19405   0.00000   0.04170   0.01816   0.05986   3.25391
    D1        0.08299  -0.00001  -0.01359  -0.00661  -0.02020   0.06279
         Item               Value     Threshold  Converged?
 Maximum Force            0.000594     0.000450     NO 
 RMS     Force            0.000241     0.000300     YES
 Maximum Displacement     0.072545     0.001800     NO 
 RMS     Displacement     0.046420     0.001200     NO 
 Predicted change in Energy=-8.877090D-06
 GradGradGradGradGradGradGradGradGradGradGradGradGradGradGradGradGradGrad

                          Input orientation:                          
 ---------------------------------------------------------------------
 Center     Atomic      Atomic             Coordinates (Angstroms)
 Number     Number       Type             X           Y           Z
 ---------------------------------------------------------------------
      1          6           0        2.258562   -0.022323    0.012280
      2          8           0        1.125820    0.034577   -0.015406
      3          8           0       -2.361044   -0.064245    0.001392
      4          1           0       -1.492381   -0.484216   -0.019882
      5          1           0       -2.172905    0.881883   -0.022016
 ---------------------------------------------------------------------
                    Distance matrix (angstroms):
                    1          2          3          4          5
     1  C    0.000000
     2  O    1.134507   0.000000
     3  O    4.619809   3.488305   0.000000
     4  H    3.779412   2.669110   0.965093   0.000000
     5  H    4.522904   3.405812   0.964937   1.526219   0.000000
 Stoichiometry    CH2O2
 Framework group  C1[X(CH2O2)]
 Deg. of freedom     9
 Full point group                 C1      NOp   1
 Largest Abelian subgroup         C1      NOp   1
 Largest concise Abelian subgroup C1      NOp   1
                         Standard orientation:                         
 ---------------------------------------------------------------------
 Center     Atomic      Atomic             Coordinates (Angstroms)
 Number     Number       Type             X           Y           Z
 ---------------------------------------------------------------------
      1          6           0       -2.258388   -0.024343   -0.013321
      2          8           0       -1.125641    0.033320    0.012506
      3          8           0        2.361239   -0.064697   -0.005755
      4          1           0        1.492727   -0.484550    0.022771
      5          1           0        2.172821    0.881624    0.003148
 ---------------------------------------------------------------------
 Rotational constants (GHZ):         457.0522299           2.8491559           2.8316832
 Standard basis: Aug-CC-pVDZ (5D, 7F)
 There are    93 symmetry adapted cartesian basis functions of A   symmetry.
 There are    87 symmetry adapted basis functions of A   symmetry.
    87 basis functions,   151 primitive gaussians,    93 cartesian basis functions
    12 alpha electrons       12 beta electrons
       nuclear repulsion energy        51.0876952056 Hartrees.
 NAtoms=    5 NActive=    5 NUniq=    5 SFac= 1.00D+00 NAtFMM=   60 NAOKFM=F Big=F
 Integral buffers will be    131072 words long.
 Raffenetti 2 integral format.
 Two-electron integral symmetry is turned on.
 One-electron integrals computed using PRISM.
 NBasis=    87 RedAO= T EigKep=  1.88D-03  NBF=    87
 NBsUse=    87 1.00D-06 EigRej= -1.00D+00 NBFU=    87
 Initial guess from the checkpoint file:  "C:\Calculation\20230510.2\(CO)1(H2O)1\(CO)1(H2O)1(2).chk"
 B after Tr=     0.000000    0.000000    0.000000
         Rot=    0.999977    0.006732   -0.000001    0.000498 Ang=   0.77 deg.
 ExpMin= 2.97D-02 ExpMax= 1.17D+04 ExpMxC= 4.01D+02 IAcc=3 IRadAn=         5 AccDes= 0.00D+00
 Harris functional with IExCor=  402 and IRadAn=       5 diagonalized for initial guess.
 HarFok:  IExCor=  402 AccDes= 0.00D+00 IRadAn=         5 IDoV= 1 UseB2=F ITyADJ=14
 ICtDFT=  3500011 ScaDFX=  1.000000  1.000000  1.000000  1.000000
 FoFCou: FMM=F IPFlag=           0 FMFlag=      100000 FMFlg1=           0
         NFxFlg=           0 DoJE=T BraDBF=F KetDBF=T FulRan=T
         wScrn=  0.000000 ICntrl=       500 IOpCl=  0 I1Cent=   200000004 NGrid=           0
         NMat0=    1 NMatS0=      1 NMatT0=    0 NMatD0=    1 NMtDS0=    0 NMtDT0=    0
 Petite list used in FoFCou.
 Keep R1 ints in memory in canonical form, NReq=8247791.
 Requested convergence on RMS density matrix=1.00D-08 within 128 cycles.
 Requested convergence on MAX density matrix=1.00D-06.
 Requested convergence on             energy=1.00D-06.
 No special actions if energy rises.
 SCF Done:  E(RB3LYP) =  -189.775689434     A.U. after    9 cycles
            NFock=  9  Conv=0.85D-08     -V/T= 2.0060
 Calling FoFJK, ICntrl=      2127 FMM=F ISym2X=0 I1Cent= 0 IOpClX= 0 NMat=1 NMatS=1 NMatT=0.
 ***** Axes restored to original set *****
 -------------------------------------------------------------------
 Center     Atomic                   Forces (Hartrees/Bohr)
 Number     Number              X              Y              Z
 -------------------------------------------------------------------
      1        6           0.000578869    0.000075093    0.000008463
      2        8          -0.000581226   -0.000246299   -0.000012588
      3        8          -0.000081549   -0.000090723   -0.000026185
      4        1           0.000088789    0.000568072    0.000020277
      5        1          -0.000004882   -0.000306144    0.000010033
 -------------------------------------------------------------------
 Cartesian Forces:  Max     0.000581226 RMS     0.000280459

 GradGradGradGradGradGradGradGradGradGradGradGradGradGradGradGradGradGrad
 Berny optimization.
 Using GEDIIS/GDIIS optimizer.
 FormGI is forming the generalized inverse of G from B-inverse, IUseBI=4.
 Internal  Forces:  Max     0.000621960 RMS     0.000312166
 Search for a local minimum.
 Step number   6 out of a maximum of   20
 All quantities printed in internal units (Hartrees-Bohrs-Radians)
 Mixed Optimization -- En-DIIS/RFO-DIIS
 Swapping is turned off.
 Update second derivatives using D2CorX and points    1    2    3    4    5
                                                      6
 DE= -1.33D-05 DEPred=-8.88D-06 R= 1.49D+00
 TightC=F SS=  1.41D+00  RLast= 1.21D-01 DXNew= 5.0454D-01 3.6402D-01
 Trust test= 1.49D+00 RLast= 1.21D-01 DXMaxT set to 3.64D-01
 The second derivative matrix:
                          R1        R2        R3        R4        A1
           R1           1.49475
           R2          -0.00103   0.01307
           R3          -0.02838   0.00128   0.57311
           R4          -0.04058   0.00156   0.04074   0.59351
           A1          -0.02343   0.00096   0.02607   0.03212   0.18062
           A2           0.02929   0.02168  -0.02267  -0.03193  -0.01728
           A3          -0.01538   0.00058   0.01203   0.01676   0.00945
           A4          -0.00068   0.00034   0.00051   0.00072   0.00040
           D1          -0.00006  -0.00071   0.00017   0.00017   0.00013
                          A2        A3        A4        D1
           A2           0.07719
           A3          -0.01411   0.00888
           A4          -0.00343   0.00028   0.00227
           D1           0.00626   0.00005   0.00009   0.01443
 ITU=  1  1  1  1  1  0
     Eigenvalues ---    0.00053   0.00295   0.00985   0.01471   0.08129
     Eigenvalues ---    0.17869   0.54132   0.62953   1.49898
 En-DIIS/RFO-DIIS/Sim-DIIS IScMMF=       -3 using points:     6    5    4    3    2
 RFO step:  Lambda=-2.25006027D-05.
 DIIS inversion failure, remove point   5.
 DIIS inversion failure, remove point   4.
 DIIS inversion failure, remove point   3.
 RFO-DIIS uses    2 points instead of    5
 DidBck=F Rises=F RFO-DIIS coefs:    2.28644   -1.28644    0.00000    0.00000    0.00000
 Iteration  1 RMS(Cart)=  0.04636720 RMS(Int)=  0.00876065
 Iteration  2 RMS(Cart)=  0.00939286 RMS(Int)=  0.00038426
 Iteration  3 RMS(Cart)=  0.00030589 RMS(Int)=  0.00000056
 Iteration  4 RMS(Cart)=  0.00000060 RMS(Int)=  0.00000000
 Variable       Old X    -DE/DX   Delta X   Delta X   Delta X     New X
                                 (Linear)    (Quad)   (Total)
    R1        2.14391   0.00057  -0.00015   0.00013  -0.00002   2.14389
    R2        5.04389  -0.00004  -0.08693  -0.01366  -0.10058   4.94330
    R3        1.82376  -0.00010   0.00041   0.00032   0.00073   1.82449
    R4        1.82347  -0.00030   0.00057   0.00015   0.00071   1.82418
    A1        1.82415  -0.00010   0.00080   0.00076   0.00156   1.82571
    A2        2.49526   0.00062   0.04645   0.00841   0.05486   2.55012
    A3        3.38617  -0.00022   0.08970  -0.02741   0.06229   3.44846
    A4        3.25391  -0.00001   0.07701   0.01031   0.08731   3.34122
    D1        0.06279  -0.00001  -0.02599  -0.00397  -0.02996   0.03283
         Item               Value     Threshold  Converged?
 Maximum Force            0.000622     0.000450     NO 
 RMS     Force            0.000312     0.000300     NO 
 Maximum Displacement     0.080781     0.001800     NO 
 RMS     Displacement     0.055608     0.001200     NO 
 Predicted change in Energy=-1.152643D-05
 GradGradGradGradGradGradGradGradGradGradGradGradGradGradGradGradGradGrad

                          Input orientation:                          
 ---------------------------------------------------------------------
 Center     Atomic      Atomic             Coordinates (Angstroms)
 Number     Number       Type             X           Y           Z
 ---------------------------------------------------------------------
      1          6           0        2.242212   -0.062000    0.012459
      2          8           0        1.115116    0.063900   -0.017251
      3          8           0       -2.341323   -0.080708   -0.004199
      4          1           0       -1.449634   -0.450772   -0.013788
      5          1           0       -2.208320    0.875256   -0.020854
 ---------------------------------------------------------------------
                    Distance matrix (angstroms):
                    1          2          3          4          5
     1  C    0.000000
     2  O    1.134495   0.000000
     3  O    4.583603   3.459487   0.000000
     4  H    3.712352   2.615882   0.965479   0.000000
     5  H    4.548274   3.421044   0.965315   1.527745   0.000000
 Stoichiometry    CH2O2
 Framework group  C1[X(CH2O2)]
 Deg. of freedom     9
 Full point group                 C1      NOp   1
 Largest Abelian subgroup         C1      NOp   1
 Largest concise Abelian subgroup C1      NOp   1
                         Standard orientation:                         
 ---------------------------------------------------------------------
 Center     Atomic      Atomic             Coordinates (Angstroms)
 Number     Number       Type             X           Y           Z
 ---------------------------------------------------------------------
      1          6           0       -2.242858   -0.058079   -0.012784
      2          8           0       -1.115667    0.067991    0.012252
      3          8           0        2.340692   -0.078218   -0.003669
      4          1           0        1.448890   -0.447640    0.015445
      5          1           0        2.208058    0.877934   -0.007405
 ---------------------------------------------------------------------
 Rotational constants (GHZ):         427.5587798           2.8934272           2.8741325
 Standard basis: Aug-CC-pVDZ (5D, 7F)
 There are    93 symmetry adapted cartesian basis functions of A   symmetry.
 There are    87 symmetry adapted basis functions of A   symmetry.
    87 basis functions,   151 primitive gaussians,    93 cartesian basis functions
    12 alpha electrons       12 beta electrons
       nuclear repulsion energy        51.2464211700 Hartrees.
 NAtoms=    5 NActive=    5 NUniq=    5 SFac= 1.00D+00 NAtFMM=   60 NAOKFM=F Big=F
 Integral buffers will be    131072 words long.
 Raffenetti 2 integral format.
 Two-electron integral symmetry is turned on.
 One-electron integrals computed using PRISM.
 NBasis=    87 RedAO= T EigKep=  1.84D-03  NBF=    87
 NBsUse=    87 1.00D-06 EigRej= -1.00D+00 NBFU=    87
 Initial guess from the checkpoint file:  "C:\Calculation\20230510.2\(CO)1(H2O)1\(CO)1(H2O)1(2).chk"
 B after Tr=     0.000000    0.000000    0.000000
         Rot=    0.999976    0.006880    0.000004    0.000684 Ang=   0.79 deg.
 ExpMin= 2.97D-02 ExpMax= 1.17D+04 ExpMxC= 4.01D+02 IAcc=3 IRadAn=         5 AccDes= 0.00D+00
 Harris functional with IExCor=  402 and IRadAn=       5 diagonalized for initial guess.
 HarFok:  IExCor=  402 AccDes= 0.00D+00 IRadAn=         5 IDoV= 1 UseB2=F ITyADJ=14
 ICtDFT=  3500011 ScaDFX=  1.000000  1.000000  1.000000  1.000000
 FoFCou: FMM=F IPFlag=           0 FMFlag=      100000 FMFlg1=           0
         NFxFlg=           0 DoJE=T BraDBF=F KetDBF=T FulRan=T
         wScrn=  0.000000 ICntrl=       500 IOpCl=  0 I1Cent=   200000004 NGrid=           0
         NMat0=    1 NMatS0=      1 NMatT0=    0 NMatD0=    1 NMtDS0=    0 NMtDT0=    0
 Petite list used in FoFCou.
 Keep R1 ints in memory in canonical form, NReq=8247791.
 Requested convergence on RMS density matrix=1.00D-08 within 128 cycles.
 Requested convergence on MAX density matrix=1.00D-06.
 Requested convergence on             energy=1.00D-06.
 No special actions if energy rises.
 SCF Done:  E(RB3LYP) =  -189.775707951     A.U. after    9 cycles
            NFock=  9  Conv=0.10D-07     -V/T= 2.0060
 Calling FoFJK, ICntrl=      2127 FMM=F ISym2X=0 I1Cent= 0 IOpClX= 0 NMat=1 NMatS=1 NMatT=0.
 ***** Axes restored to original set *****
 -------------------------------------------------------------------
 Center     Atomic                   Forces (Hartrees/Bohr)
 Number     Number              X              Y              Z
 -------------------------------------------------------------------
      1        6           0.000697935    0.000076266    0.000004246
      2        8          -0.000650263   -0.000273952    0.000000705
      3        8           0.000138124    0.000022794   -0.000011148
      4        1          -0.000290256    0.000922755   -0.000001731
      5        1           0.000104459   -0.000747863    0.000007928
 -------------------------------------------------------------------
 Cartesian Forces:  Max     0.000922755 RMS     0.000409599

 GradGradGradGradGradGradGradGradGradGradGradGradGradGradGradGradGradGrad
 Berny optimization.
 Using GEDIIS/GDIIS optimizer.
 FormGI is forming the generalized inverse of G from B-inverse, IUseBI=4.
 Internal  Forces:  Max     0.000728201 RMS     0.000466138
 Search for a local minimum.
 Step number   7 out of a maximum of   20
 All quantities printed in internal units (Hartrees-Bohrs-Radians)
 Mixed Optimization -- En-DIIS/RFO-DIIS
 Swapping is turned off.
 Update second derivatives using D2CorX and points    1    2    3    4    5
                                                      6    7
 DE= -1.85D-05 DEPred=-1.15D-05 R= 1.61D+00
 TightC=F SS=  1.41D+00  RLast= 1.60D-01 DXNew= 6.1221D-01 4.7936D-01
 Trust test= 1.61D+00 RLast= 1.60D-01 DXMaxT set to 4.79D-01
 The second derivative matrix:
                          R1        R2        R3        R4        A1
           R1           1.48451
           R2           0.00139   0.01328
           R3          -0.04500  -0.00162   0.62436
           R4          -0.05251  -0.00209   0.09494   0.64881
           A1          -0.03383  -0.00111   0.06127   0.06898   0.20473
           A2           0.02031   0.02361  -0.03740  -0.04247  -0.02651
           A3          -0.01386  -0.00070   0.02496   0.02838   0.01796
           A4          -0.00062   0.00028   0.00120   0.00134   0.00085
           D1           0.00035  -0.00066  -0.00057  -0.00068  -0.00039
                          A2        A3        A4        D1
           A2           0.06773
           A3          -0.01284   0.01006
           A4          -0.00343   0.00035   0.00228
           D1           0.00664  -0.00020   0.00008   0.01444
 ITU=  1  1  1  1  1  1  0
     Eigenvalues ---    0.00031   0.00313   0.00777   0.01470   0.07107
     Eigenvalues ---    0.19168   0.54086   0.74776   1.49292
 En-DIIS/RFO-DIIS/Sim-DIIS IScMMF=       -3 using points:     7    6    5    4    3    2
 RFO step:  Lambda=-4.26742281D-05.
 DIIS inversion failure, remove point   6.
 DIIS inversion failure, remove point   5.
 DIIS inversion failure, remove point   4.
 RFO-DIIS uses    2 points instead of    6
 DidBck=F Rises=F RFO-DIIS coefs:    1.98865    0.00000   -0.98865    0.00000    0.00000
                  RFO-DIIS coefs:    0.00000
 Iteration  1 RMS(Cart)=  0.03004842 RMS(Int)=  0.05936115
 Iteration  2 RMS(Cart)=  0.02582246 RMS(Int)=  0.03272703
 Iteration  3 RMS(Cart)=  0.02463476 RMS(Int)=  0.01033995
 Iteration  4 RMS(Cart)=  0.01242933 RMS(Int)=  0.00096913
 Iteration  5 RMS(Cart)=  0.00033401 RMS(Int)=  0.00000382
 Iteration  6 RMS(Cart)=  0.00000489 RMS(Int)=  0.00000000
 Iteration  7 RMS(Cart)=  0.00000000 RMS(Int)=  0.00000000
 Variable       Old X    -DE/DX   Delta X   Delta X   Delta X     New X
                                 (Linear)    (Quad)   (Total)
    R1        2.14389   0.00069  -0.00014   0.00019   0.00005   2.14394
    R2        4.94330   0.00001  -0.16625  -0.01309  -0.17934   4.76396
    R3        1.82449  -0.00050   0.00104   0.00040   0.00143   1.82592
    R4        1.82418  -0.00073   0.00114   0.00014   0.00129   1.82547
    A1        1.82571  -0.00038   0.00216   0.00096   0.00312   1.82882
    A2        2.55012   0.00068   0.08993   0.00911   0.09905   2.64917
    A3        3.44846  -0.00032   0.13051  -0.04372   0.08679   3.53525
    A4        3.34122  -0.00001   0.14550   0.01075   0.15625   3.49747
    D1        0.03283   0.00000  -0.04959  -0.00404  -0.05364  -0.02080
         Item               Value     Threshold  Converged?
 Maximum Force            0.000728     0.000450     NO 
 RMS     Force            0.000466     0.000300     NO 
 Maximum Displacement     0.136099     0.001800     NO 
 RMS     Displacement     0.092972     0.001200     NO 
 Predicted change in Energy=-1.997452D-05
 GradGradGradGradGradGradGradGradGradGradGradGradGradGradGradGradGradGrad

                          Input orientation:                          
 ---------------------------------------------------------------------
 Center     Atomic      Atomic             Coordinates (Angstroms)
 Number     Number       Type             X           Y           Z
 ---------------------------------------------------------------------
      1          6           0        2.207134   -0.121413    0.004142
      2          8           0        1.095059    0.102790   -0.008795
      3          8           0       -2.301719   -0.106319   -0.014520
      4          1           0       -1.377613   -0.388335   -0.004017
      5          1           0       -2.264809    0.858953   -0.020442
 ---------------------------------------------------------------------
                    Distance matrix (angstroms):
                    1          2          3          4          5
     1  C    0.000000
     2  O    1.134524   0.000000
     3  O    4.508916   3.403213   0.000000
     4  H    3.594679   2.520978   0.966238   0.000000
     5  H    4.578208   3.443926   0.965995   1.530723   0.000000
 Stoichiometry    CH2O2
 Framework group  C1[X(CH2O2)]
 Deg. of freedom     9
 Full point group                 C1      NOp   1
 Largest Abelian subgroup         C1      NOp   1
 Largest concise Abelian subgroup C1      NOp   1
                         Standard orientation:                         
 ---------------------------------------------------------------------
 Center     Atomic      Atomic             Coordinates (Angstroms)
 Number     Number       Type             X           Y           Z
 ---------------------------------------------------------------------
      1          6           0       -2.209564   -0.105467   -0.003039
      2          8           0       -1.097040    0.116789    0.003145
      3          8           0        2.299346   -0.098646    0.000372
      4          1           0        1.374691   -0.379030   -0.003220
      5          1           0        2.264237    0.866686   -0.006678
 ---------------------------------------------------------------------
 Rotational constants (GHZ):         363.1853155           2.9868531           2.9625001
 Standard basis: Aug-CC-pVDZ (5D, 7F)
 There are    93 symmetry adapted cartesian basis functions of A   symmetry.
 There are    87 symmetry adapted basis functions of A   symmetry.
    87 basis functions,   151 primitive gaussians,    93 cartesian basis functions
    12 alpha electrons       12 beta electrons
       nuclear repulsion energy        51.5684515570 Hartrees.
 NAtoms=    5 NActive=    5 NUniq=    5 SFac= 1.00D+00 NAtFMM=   60 NAOKFM=F Big=F
 Integral buffers will be    131072 words long.
 Raffenetti 2 integral format.
 Two-electron integral symmetry is turned on.
 One-electron integrals computed using PRISM.
 NBasis=    87 RedAO= T EigKep=  1.76D-03  NBF=    87
 NBsUse=    87 1.00D-06 EigRej= -1.00D+00 NBFU=    87
 Initial guess from the checkpoint file:  "C:\Calculation\20230510.2\(CO)1(H2O)1\(CO)1(H2O)1(2).chk"
 B after Tr=     0.000000    0.000000    0.000000
         Rot=    0.999984    0.005508    0.000008    0.001173 Ang=   0.65 deg.
 ExpMin= 2.97D-02 ExpMax= 1.17D+04 ExpMxC= 4.01D+02 IAcc=3 IRadAn=         5 AccDes= 0.00D+00
 Harris functional with IExCor=  402 and IRadAn=       5 diagonalized for initial guess.
 HarFok:  IExCor=  402 AccDes= 0.00D+00 IRadAn=         5 IDoV= 1 UseB2=F ITyADJ=14
 ICtDFT=  3500011 ScaDFX=  1.000000  1.000000  1.000000  1.000000
 FoFCou: FMM=F IPFlag=           0 FMFlag=      100000 FMFlg1=           0
         NFxFlg=           0 DoJE=T BraDBF=F KetDBF=T FulRan=T
         wScrn=  0.000000 ICntrl=       500 IOpCl=  0 I1Cent=   200000004 NGrid=           0
         NMat0=    1 NMatS0=      1 NMatT0=    0 NMatD0=    1 NMtDS0=    0 NMtDT0=    0
 Petite list used in FoFCou.
 Keep R1 ints in memory in canonical form, NReq=8247791.
 Requested convergence on RMS density matrix=1.00D-08 within 128 cycles.
 Requested convergence on MAX density matrix=1.00D-06.
 Requested convergence on             energy=1.00D-06.
 No special actions if energy rises.
 SCF Done:  E(RB3LYP) =  -189.775730153     A.U. after   10 cycles
            NFock= 10  Conv=0.11D-08     -V/T= 2.0060
 Calling FoFJK, ICntrl=      2127 FMM=F ISym2X=0 I1Cent= 0 IOpClX= 0 NMat=1 NMatS=1 NMatT=0.
 ***** Axes restored to original set *****
 -------------------------------------------------------------------
 Center     Atomic                   Forces (Hartrees/Bohr)
 Number     Number              X              Y              Z
 -------------------------------------------------------------------
      1        6           0.000811459    0.000063297   -0.000002660
      2        8          -0.000633170   -0.000297990    0.000013926
      3        8           0.000524881    0.000260839    0.000020830
      4        1          -0.001138038    0.001494567   -0.000041848
      5        1           0.000434869   -0.001520713    0.000009752
 -------------------------------------------------------------------
 Cartesian Forces:  Max     0.001520713 RMS     0.000708460

 GradGradGradGradGradGradGradGradGradGradGradGradGradGradGradGradGradGrad
 Berny optimization.
 Using GEDIIS/GDIIS optimizer.
 FormGI is forming the generalized inverse of G from B-inverse, IUseBI=4.
 Internal  Forces:  Max     0.001508301 RMS     0.000830041
 Search for a local minimum.
 Step number   8 out of a maximum of   20
 All quantities printed in internal units (Hartrees-Bohrs-Radians)
 Mixed Optimization -- En-DIIS/RFO-DIIS
 Swapping is turned off.
 Update second derivatives using D2CorX and points    4    5    6    7    8
 DE= -2.22D-05 DEPred=-2.00D-05 R= 1.11D+00
 TightC=F SS=  1.41D+00  RLast= 2.77D-01 DXNew= 8.0618D-01 8.3144D-01
 Trust test= 1.11D+00 RLast= 2.77D-01 DXMaxT set to 8.06D-01
 The second derivative matrix:
                          R1        R2        R3        R4        A1
           R1           1.48338
           R2           0.00301   0.01402
           R3          -0.05144  -0.00643   0.65021
           R4          -0.05823  -0.00726   0.12192   0.67661
           A1          -0.03794  -0.00437   0.07857   0.08697   0.21629
           A2           0.01943   0.02521  -0.04477  -0.04915  -0.03126
           A3          -0.01401  -0.00182   0.02984   0.03308   0.02114
           A4          -0.00042   0.00032   0.00076   0.00086   0.00055
           D1           0.00031  -0.00065  -0.00046  -0.00055  -0.00031
                          A2        A3        A4        D1
           A2           0.06702
           A3          -0.01324   0.01054
           A4          -0.00326   0.00022   0.00227
           D1           0.00663  -0.00016   0.00009   0.01443
 ITU=  1  1  1  1  1  1  1  0
     Eigenvalues ---    0.00026   0.00331   0.00710   0.01474   0.06945
     Eigenvalues ---    0.19607   0.54077   0.80826   1.49481
 En-DIIS/RFO-DIIS/Sim-DIIS IScMMF=       -3 using points:     8    7    6    5    4    3    2
 RFO step:  Lambda=-2.98644700D-05.
 DIIS inversion failure, remove point   7.
 DIIS inversion failure, remove point   6.
 DIIS inversion failure, remove point   5.
 DIIS inversion failure, remove point   4.
 RFO-DIIS uses    3 points instead of    7
 DidBck=F Rises=F RFO-DIIS coefs:    1.57193   -2.00000    1.42807    0.00000    0.00000
                  RFO-DIIS coefs:    0.00000    0.00000
 Iteration  1 RMS(Cart)=  0.00527274 RMS(Int)=  0.05710441
 Iteration  2 RMS(Cart)=  0.00256285 RMS(Int)=  0.05394684
 Iteration  3 RMS(Cart)=  0.00219465 RMS(Int)=  0.05125317
 Iteration  4 RMS(Cart)=  0.00191134 RMS(Int)=  0.04891437
 Iteration  5 RMS(Cart)=  0.00168760 RMS(Int)=  0.04685453
 Iteration  6 RMS(Cart)=  0.00150703 RMS(Int)=  0.04501897
 Iteration  7 RMS(Cart)=  0.00135856 RMS(Int)=  0.04336721
 Iteration  8 RMS(Cart)=  0.00123456 RMS(Int)=  0.04186856
 Iteration  9 RMS(Cart)=  0.00112955 RMS(Int)=  0.04049924
 Iteration 10 RMS(Cart)=  0.00103957 RMS(Int)=  0.03924052
 Iteration 11 RMS(Cart)=  0.00096166 RMS(Int)=  0.03807739
 Iteration 12 RMS(Cart)=  0.00089357 RMS(Int)=  0.03699764
 Iteration 13 RMS(Cart)=  0.00083360 RMS(Int)=  0.03599126
 Iteration 14 RMS(Cart)=  0.00078037 RMS(Int)=  0.03504988
 Iteration 15 RMS(Cart)=  0.00073285 RMS(Int)=  0.03416649
 Iteration 16 RMS(Cart)=  0.00069015 RMS(Int)=  0.03333511
 Iteration 17 RMS(Cart)=  0.00065161 RMS(Int)=  0.03255066
 Iteration 18 RMS(Cart)=  0.00061664 RMS(Int)=  0.03180874
[...]
 Center     Atomic      Atomic             Coordinates (Angstroms)
 Number     Number       Type             X           Y           Z
 ---------------------------------------------------------------------
      1          6           0       -2.189062   -0.110701    0.000520
      2          8           0       -1.078435    0.121598   -0.000102
      3          8           0        2.263161   -0.107849    0.001495
      4          1           0        1.345427   -0.276345   -0.012272
      5          1           0        2.311143    0.830556   -0.001995
 ---------------------------------------------------------------------
 Rotational constants (GHZ):         382.8050788           3.0635243           3.0392089
 Standard basis: Aug-CC-pVDZ (5D, 7F)
 There are    93 symmetry adapted cartesian basis functions of A   symmetry.
 There are    87 symmetry adapted basis functions of A   symmetry.
    87 basis functions,   151 primitive gaussians,    93 cartesian basis functions
    12 alpha electrons       12 beta electrons
       nuclear repulsion energy        52.1384349713 Hartrees.
 NAtoms=    5 NActive=    5 NUniq=    5 SFac= 1.00D+00 NAtFMM=   60 NAOKFM=F Big=F
 Integral buffers will be    131072 words long.
 Raffenetti 2 integral format.
 Two-electron integral symmetry is turned on.
 One-electron integrals computed using PRISM.
 NBasis=    87 RedAO= T EigKep=  1.63D-03  NBF=    87
 NBsUse=    87 1.00D-06 EigRej= -1.00D+00 NBFU=    87
 Initial guess from the checkpoint file:  "C:\Calculation\20230510.2\(CO)1(H2O)1\(CO)1(H2O)1(2).chk"
 B after Tr=     0.000000    0.000000    0.000000
         Rot=    1.000000   -0.000518    0.000004    0.000121 Ang=  -0.06 deg.
 ExpMin= 2.97D-02 ExpMax= 1.17D+04 ExpMxC= 4.01D+02 IAcc=3 IRadAn=         5 AccDes= 0.00D+00
 Harris functional with IExCor=  402 and IRadAn=       5 diagonalized for initial guess.
 HarFok:  IExCor=  402 AccDes= 0.00D+00 IRadAn=         5 IDoV= 1 UseB2=F ITyADJ=14
 ICtDFT=  3500011 ScaDFX=  1.000000  1.000000  1.000000  1.000000
 FoFCou: FMM=F IPFlag=           0 FMFlag=      100000 FMFlg1=           0
         NFxFlg=           0 DoJE=T BraDBF=F KetDBF=T FulRan=T
         wScrn=  0.000000 ICntrl=       500 IOpCl=  0 I1Cent=   200000004 NGrid=           0
         NMat0=    1 NMatS0=      1 NMatT0=    0 NMatD0=    1 NMtDS0=    0 NMtDT0=    0
 Petite list used in FoFCou.
 Keep R1 ints in memory in canonical form, NReq=8247791.
 Requested convergence on RMS density matrix=1.00D-08 within 128 cycles.
 Requested convergence on MAX density matrix=1.00D-06.
 Requested convergence on             energy=1.00D-06.
 No special actions if energy rises.
 SCF Done:  E(RB3LYP) =  -189.774080803     A.U. after    9 cycles
            NFock=  9  Conv=0.44D-08     -V/T= 2.0054
 Calling FoFJK, ICntrl=      2127 FMM=F ISym2X=0 I1Cent= 0 IOpClX= 0 NMat=1 NMatS=1 NMatT=0.
 ***** Axes restored to original set *****
 -------------------------------------------------------------------
 Center     Atomic                   Forces (Hartrees/Bohr)
 Number     Number              X              Y              Z
 -------------------------------------------------------------------
      1        6           0.000528001    0.000096234   -0.000008346
      2        8          -0.000352794   -0.000312886    0.000023376
      3        8          -0.029918887   -0.017481197   -0.000576483
      4        1           0.034863309   -0.009892662    0.000650870
      5        1          -0.005119629    0.027590511   -0.000089417
 -------------------------------------------------------------------
 Cartesian Forces:  Max     0.034863309 RMS     0.014838618

 GradGradGradGradGradGradGradGradGradGradGradGradGradGradGradGradGradGrad
 Berny optimization.
 Using GEDIIS/GDIIS optimizer.
 FormGI is forming the generalized inverse of G from B-inverse, IUseBI=4.
 Internal  Forces:  Max     0.036312281 RMS     0.015393880
 Search for a local minimum.
 Step number  12 out of a maximum of   20
 All quantities printed in internal units (Hartrees-Bohrs-Radians)
 Mixed Optimization -- RFO/linear search
 Update second derivatives using D2CorX and points   12   11
 The second derivative matrix:
                          R1        R2        R3        R4        A1
           R1           1.46849
           R2          -0.00148   0.00964
           R3          -0.00420   0.01279   0.58964
           R4          -0.00872   0.02243   0.03352   0.54003
           A1          -0.00439  -0.00427   0.02566   0.03653   0.17811
           A2           0.00804  -0.00456   0.02028   0.07891  -0.02884
           A3           0.04479  -0.07516  -0.00761   0.16735  -0.08088
           A4           0.00000  -0.00001   0.00000   0.00003  -0.00001
           D1          -0.00116  -0.00065   0.00415   0.00253   0.00120
                          A2        A3        A4        D1
           A2          -0.10200
           A3          -0.40008  -1.14827
           A4          -0.00007  -0.00019   0.00000
           D1           0.00697   0.00216   0.00000   0.01450
 ITU=  0  0 -1  1  1  1  1  1  1  1
 Use linear search instead of GDIIS.
     Eigenvalues ---   -1.31237   0.00000   0.00040   0.01495   0.04400
     Eigenvalues ---    0.18016   0.53761   0.61606   1.46935
 RFO step:  Lambda=-1.31237350D+00 EMin=-1.31237306D+00
 I=     1 Eig=   -1.31D+00 Dot1= -4.55D-04
 I=     1 Stepn= -6.00D-01 RXN=   6.00D-01 EDone=F
 Mixed    1 eigenvectors in step.  Raw Step.Grad=  4.55D-04.
 RFO eigenvector is Hessian eigenvector with negative curvature.
 Taking step of  6.00D-01 in eigenvector direction(s).  Step.Grad=  1.06D-04.
 Quartic linear search produced a step of -0.92410.
 Maximum step size (   0.403) exceeded in Quadratic search.
    -- Step size not scaled.
 SLEqS3 Cycle:   151 Max:0.128779     RMS:0.435732E-01 Conv:0.155139E-05
 SLEqS3 Cycle:   151 Max:0.128779     RMS:0.435732E-01 Conv:0.155139E-05
 Iteration  1 RMS(Cart)=  0.00442796 RMS(Int)=  1.06482185
 New curvilinear step failed, DQL= 3.15D+00 SP=-6.50D-01.
 ITry= 1 IFail=1 DXMaxC= 1.07D-02 DCOld= 1.00D+10 DXMaxT= 4.03D-01 DXLimC= 3.00D+00 Rises=F
 SLEqS3 Cycle:   151 Max:0.103645     RMS:0.378438E-01 Conv:0.119416E-04
 SLEqS3 Cycle:   151 Max:0.103645     RMS:0.378438E-01 Conv:0.119416E-04
 Iteration  1 RMS(Cart)=  0.02307773 RMS(Int)=  0.10077874
 SLEqS3 Cycle:   151 Max:0.117662     RMS:0.401140E-01 Conv:0.124245E-04
 SLEqS3 Cycle:   151 Max:0.115841     RMS:0.403848E-01 Conv:0.124245E-04
 Iteration  2 RMS(Cart)=  0.00406475 RMS(Int)=  0.10033867
 SLEqS3 Cycle:   151 Max:0.118258     RMS:0.409243E-01 Conv:0.182439E-06
 SLEqS3 Cycle:   151 Max:0.118253     RMS:0.409210E-01 Conv:0.182439E-06
 Iteration  3 RMS(Cart)=  0.00055045 RMS(Int)=  0.10029171
 SLEqS3 Cycle:   151 Max:0.119235     RMS:0.406159E-01 Conv:0.120398E-06
 SLEqS3 Cycle:   151 Max:0.118573     RMS:0.409904E-01 Conv:0.120398E-06
 Iteration  4 RMS(Cart)=  0.00008240 RMS(Int)=  0.10028494
 SLEqS3 Cycle:   151 Max:0.119243     RMS:0.406242E-01 Conv:0.118528E-06
 SLEqS3 Cycle:   151 Max:0.118611     RMS:0.409929E-01 Conv:0.118528E-06
 Iteration  5 RMS(Cart)=  0.00005337 RMS(Int)=  0.10028059
 SLEqS3 Cycle:   151 Max:0.119269     RMS:0.406263E-01 Conv:0.118579E-06
 SLEqS3 Cycle:   151 Max:0.118637     RMS:0.409939E-01 Conv:0.118579E-06
 Iteration  6 RMS(Cart)=  0.00004451 RMS(Int)=  0.10027699
 SLEqS3 Cycle:   151 Max:0.119256     RMS:0.406400E-01 Conv:0.118608E-06
 SLEqS3 Cycle:   151 Max:0.118655     RMS:0.409933E-01 Conv:0.118608E-06
 Iteration  7 RMS(Cart)=  0.00003773 RMS(Int)=  0.10027395
 SLEqS3 Cycle:   151 Max:0.119268     RMS:0.406409E-01 Conv:0.118730E-06
 SLEqS3 Cycle:   151 Max:0.118668     RMS:0.409921E-01 Conv:0.118730E-06
 Iteration  8 RMS(Cart)=  0.00003300 RMS(Int)=  0.10027130
 SLEqS3 Cycle:   151 Max:0.119310     RMS:0.406292E-01 Conv:0.118869E-06
 SLEqS3 Cycle:   151 Max:0.118680     RMS:0.409913E-01 Conv:0.118869E-06
 Iteration  9 RMS(Cart)=  0.00002935 RMS(Int)=  0.10026896
 SLEqS3 Cycle:   151 Max:0.119319     RMS:0.406285E-01 Conv:0.118738E-06
 SLEqS3 Cycle:   151 Max:0.118688     RMS:0.409897E-01 Conv:0.118738E-06
 Iteration 10 RMS(Cart)=  0.00002517 RMS(Int)=  0.10026695
 SLEqS3 Cycle:   151 Max:0.119338     RMS:0.406324E-01 Conv:0.118811E-06
 SLEqS3 Cycle:   151 Max:0.118708     RMS:0.409925E-01 Conv:0.118811E-06
 Iteration 11 RMS(Cart)=  0.00002267 RMS(Int)=  0.10026515
 SLEqS3 Cycle:   151 Max:0.119346     RMS:0.406332E-01 Conv:0.118552E-06
 SLEqS3 Cycle:   151 Max:0.118716     RMS:0.409923E-01 Conv:0.118552E-06
 Iteration 12 RMS(Cart)=  0.00001929 RMS(Int)=  0.10026362
 SLEqS3 Cycle:   151 Max:0.119345     RMS:0.406328E-01 Conv:0.118611E-06
 SLEqS3 Cycle:   151 Max:0.118718     RMS:0.409897E-01 Conv:0.118611E-06
 Iteration 13 RMS(Cart)=  0.00001791 RMS(Int)=  0.10026221
 SLEqS3 Cycle:   151 Max:0.119350     RMS:0.406326E-01 Conv:0.118917E-06
 SLEqS3 Cycle:   151 Max:0.118722     RMS:0.409883E-01 Conv:0.118917E-06
 Iteration 14 RMS(Cart)=  0.00001777 RMS(Int)=  0.10026081
 SLEqS3 Cycle:   151 Max:0.119360     RMS:0.406346E-01 Conv:0.118808E-06
 SLEqS3 Cycle:   151 Max:0.118733     RMS:0.409892E-01 Conv:0.118808E-06
 Iteration 15 RMS(Cart)=  0.00001617 RMS(Int)=  0.10025954
 SLEqS3 Cycle:   151 Max:0.119349     RMS:0.406409E-01 Conv:0.118656E-06
 SLEqS3 Cycle:   151 Max:0.118737     RMS:0.409883E-01 Conv:0.118656E-06
 Iteration 16 RMS(Cart)=  0.00001486 RMS(Int)=  0.10025837
 SLEqS3 Cycle:   151 Max:0.119372     RMS:0.406317E-01 Conv:0.118677E-06
 SLEqS3 Cycle:   151 Max:0.118739     RMS:0.409863E-01 Conv:0.118677E-06
 Iteration 17 RMS(Cart)=  0.00001467 RMS(Int)=  0.10025722
 SLEqS3 Cycle:   151 Max:0.119379     RMS:0.406361E-01 Conv:0.118953E-06
 SLEqS3 Cycle:   151 Max:0.118750     RMS:0.409877E-01 Conv:0.118953E-06
 Iteration 18 RMS(Cart)=  0.00001592 RMS(Int)=  0.10025598
 SLEqS3 Cycle:   151 Max:0.119389     RMS:0.406341E-01 Conv:0.118947E-06
 SLEqS3 Cycle:   151 Max:0.119390     RMS:0.406332E-01 Conv:0.118947E-06
 Iteration 19 RMS(Cart)=  0.00000032 RMS(Int)=  0.10025594
 ITry= 2 IFail=0 DXMaxC= 6.26D-02 DCOld= 1.00D+10 DXMaxT= 4.03D-01 DXLimC= 3.00D+00 Rises=F
 Variable       Old X    -DE/DX   Delta X   Delta X   Delta X     New X
                                 (Linear)    (Quad)   (Total)
    R1        2.14420   0.00050  -0.00004  -0.00974   0.00002   2.14422
    R2        4.64181   0.00019  -0.00754   0.03381  -0.00904   4.63277
    R3        1.76345   0.03631   0.05823   0.00055   0.05115   1.81459
    R4        1.77566   0.02767   0.04625  -0.06020   0.04370   1.81935
    A1        1.80338   0.00685   0.02448   0.03580   0.01581   1.81919
    A2        2.79673   0.00097  -0.06115   0.19117  -0.04725   2.74949
    A3        3.51053   0.00041   0.02647   0.56330   0.02193   3.53246
    A4        0.29923   0.00000  -0.00009   0.00009  -0.00004   0.29919
    D1       -0.06308   0.00000  -0.00156  -0.00183  -0.00106  -0.06414
         Item               Value     Threshold  Converged?
 Maximum Force            0.036312     0.000450     NO 
 RMS     Force            0.015394     0.000300     NO 
 Maximum Displacement     0.062584     0.001800     NO 
 RMS     Displacement     0.027852     0.001200     NO 
 Predicted change in Energy=-5.946463D-05
 GradGradGradGradGradGradGradGradGradGradGradGradGradGradGradGradGradGrad

                          Input orientation:                          
 ---------------------------------------------------------------------
 Center     Atomic      Atomic             Coordinates (Angstroms)
 Number     Number       Type             X           Y           Z
 ---------------------------------------------------------------------
      1          6           0        2.188054   -0.142934    0.000156
      2          8           0        1.079616    0.099591   -0.004716
      3          8           0       -2.272023   -0.122495   -0.020128
      4          1           0       -1.334314   -0.328244    0.000641
      5          1           0       -2.303281    0.839758   -0.019586
 ---------------------------------------------------------------------
                    Distance matrix (angstroms):
                    1          2          3          4          5
     1  C    0.000000
     2  O    1.134670   0.000000
     3  O    4.460169   3.359024   0.000000
     4  H    3.527239   2.451556   0.960240   0.000000
     5  H    4.597626   3.462956   0.962761   1.517740   0.000000
 Stoichiometry    CH2O2
 Framework group  C1[X(CH2O2)]
 Deg. of freedom     9
 Full point group                 C1      NOp   1
 Largest Abelian subgroup         C1      NOp   1
 Largest concise Abelian subgroup C1      NOp   1
                         Standard orientation:                         
 ---------------------------------------------------------------------
 Center     Atomic      Atomic             Coordinates (Angstroms)
 Number     Number       Type             X           Y           Z
 ---------------------------------------------------------------------
      1          6           0       -2.190489   -0.113505    0.000655
      2          8           0       -1.081231    0.125286   -0.000161
      3          8           0        2.269677   -0.108074    0.001774
      4          1           0        1.331200   -0.310729   -0.014180
      5          1           0        2.304171    0.854059   -0.002652
 ---------------------------------------------------------------------
 Rotational constants (GHZ):         360.0600446           3.0528539           3.0271964
 Standard basis: Aug-CC-pVDZ (5D, 7F)
 There are    93 symmetry adapted cartesian basis functions of A   symmetry.
 There are    87 symmetry adapted basis functions of A   symmetry.
    87 basis functions,   151 primitive gaussians,    93 cartesian basis functions
    12 alpha electrons       12 beta electrons
       nuclear repulsion energy        51.8578584981 Hartrees.
 NAtoms=    5 NActive=    5 NUniq=    5 SFac= 1.00D+00 NAtFMM=   60 NAOKFM=F Big=F
 Integral buffers will be    131072 words long.
 Raffenetti 2 integral format.
 Two-electron integral symmetry is turned on.
 One-electron integrals computed using PRISM.
 NBasis=    87 RedAO= T EigKep=  1.69D-03  NBF=    87
 NBsUse=    87 1.00D-06 EigRej= -1.00D+00 NBFU=    87
 Lowest energy guess from the checkpoint file:  "C:\Calculation\20230510.2\(CO)1(H2O)1\(CO)1(H2O)1(2).chk"
 B after Tr=     0.000000    0.000000    0.000000
         Rot=    1.000000   -0.000165    0.000001    0.000017 Ang=  -0.02 deg.
 B after Tr=     0.000000    0.000000    0.000000
         Rot=    1.000000    0.000353   -0.000003   -0.000104 Ang=   0.04 deg.
 Keep R1 ints in memory in canonical form, NReq=8247791.
 Requested convergence on RMS density matrix=1.00D-08 within 128 cycles.
 Requested convergence on MAX density matrix=1.00D-06.
 Requested convergence on             energy=1.00D-06.
 No special actions if energy rises.
 SCF Done:  E(RB3LYP) =  -189.775766359     A.U. after    8 cycles
            NFock=  8  Conv=0.33D-08     -V/T= 2.0059
 Calling FoFJK, ICntrl=      2127 FMM=F ISym2X=0 I1Cent= 0 IOpClX= 0 NMat=1 NMatS=1 NMatT=0.
 ***** Axes restored to original set *****
 -------------------------------------------------------------------
 Center     Atomic                   Forces (Hartrees/Bohr)
 Number     Number              X              Y              Z
 -------------------------------------------------------------------
      1        6           0.000566508    0.000108648   -0.000009668
      2        8          -0.000304460   -0.000346263    0.000026559
      3        8          -0.004230546   -0.000620821   -0.000059654
      4        1           0.004702241   -0.001081744    0.000061444
      5        1          -0.000733743    0.001940180   -0.000018682
 -------------------------------------------------------------------
 Cartesian Forces:  Max     0.004702241 RMS     0.001759179

 GradGradGradGradGradGradGradGradGradGradGradGradGradGradGradGradGradGrad
 Berny optimization.
 Using GEDIIS/GDIIS optimizer.
 FormGI is forming the generalized inverse of G from B-inverse, IUseBI=4.
 Internal  Forces:  Max     0.005132041 RMS     0.001919971
 Search for a local minimum.
 Step number  13 out of a maximum of   20
 All quantities printed in internal units (Hartrees-Bohrs-Radians)
 Mixed Optimization -- RFO/linear search
 Update second derivatives using D2CorX and points   12   13   11
 The second derivative matrix:
                          R1        R2        R3        R4        A1
           R1           1.46848
           R2          -0.00158   0.00947
           R3          -0.00381   0.01946   0.58296
           R4          -0.00850   0.02609   0.02948   0.53761
           A1          -0.00420  -0.00195   0.01935   0.03295   0.17459
           A2           0.00784  -0.00493   0.03393   0.08639  -0.02409
           A3           0.04473  -0.07527  -0.00332   0.16970  -0.07939
           A4           0.00000  -0.00001   0.00000   0.00003  -0.00001
           D1          -0.00119  -0.00071   0.00664   0.00389   0.00205
                          A2        A3        A4        D1
           A2          -0.10275
           A3          -0.40032  -1.14834
           A4          -0.00007  -0.00019   0.00000
           D1           0.00686   0.00212   0.00000   0.01449
 ITU=  0  0  0 -1  1  1  1  1  1  1
 Use linear search instead of GDIIS.
 Energy rises -- skip Quadratic/GDIIS search.
 Quartic linear search produced a step of -0.53068.
 SLEqS3 Cycle:    50 Max:0.126290E-02 RMS:0.464892E-03 Conv:0.874126E-05
 Iteration  1 RMS(Cart)=  0.00041094 RMS(Int)=  1.04713672
 Iteration  2 RMS(Cart)=  0.00371256 RMS(Int)=  1.03856142
 Iteration  3 RMS(Cart)=  0.00015268 RMS(Int)=  0.99565187
 Iteration  4 RMS(Cart)=  0.00005746 RMS(Int)=  0.99027865
 Iteration  5 RMS(Cart)=  0.00007858 RMS(Int)=  0.97422212
 Iteration  6 RMS(Cart)=  0.00013518 RMS(Int)=  0.96829389
 Iteration  7 RMS(Cart)=  0.00008252 RMS(Int)=  0.94107725
 Iteration  8 RMS(Cart)=  0.00005110 RMS(Int)=  0.93577631
 Iteration  9 RMS(Cart)=  0.00004527 RMS(Int)=  0.93047596
 Iteration 10 RMS(Cart)=  0.00003865 RMS(Int)=  0.92517195
 Iteration 11 RMS(Cart)=  0.00003290 RMS(Int)=  0.91986717
 Iteration 12 RMS(Cart)=  0.00002823 RMS(Int)=  0.91456214
 Iteration 13 RMS(Cart)=  0.00002476 RMS(Int)=  0.90925631
 Iteration 14 RMS(Cart)=  0.00002248 RMS(Int)=  0.90394814
 Iteration 15 RMS(Cart)=  0.00002132 RMS(Int)=  0.89863530
 Iteration 16 RMS(Cart)=  0.00002107 RMS(Int)=  0.89331612
 Iteration 17 RMS(Cart)=  0.00002152 RMS(Int)=  0.88798734
 Iteration 18 RMS(Cart)=  0.00002245 RMS(Int)=  0.88264377
 Iteration 19 RMS(Cart)=  0.00002353 RMS(Int)=  0.87728554
 Iteration 20 RMS(Cart)=  0.00002497 RMS(Int)=  0.87189810
 Iteration 21 RMS(Cart)=  0.00002620 RMS(Int)=  0.86647651
 Iteration 22 RMS(Cart)=  0.00002714 RMS(Int)=  0.86102976
 Iteration 23 RMS(Cart)=  0.00002842 RMS(Int)=  0.85553519
 Iteration 24 RMS(Cart)=  0.00002910 RMS(Int)=  0.84999343
 Iteration 25 RMS(Cart)=  0.00003002 RMS(Int)=  0.84435124
 Iteration 26 RMS(Cart)=  0.00002936 RMS(Int)=  0.83866166
 Iteration 27 RMS(Cart)=  0.00002852 RMS(Int)=  0.83296043
 Iteration 28 RMS(Cart)=  0.00002964 RMS(Int)=  0.82692584
 Iteration 29 RMS(Cart)=  0.00002470 RMS(Int)=  0.82111349
 Iteration 30 RMS(Cart)=  0.00002489 RMS(Int)=  0.81495547
 Iteration 31 RMS(Cart)=  0.00001464 RMS(Int)=  0.81078026
 Linear angle in Tors.
 Error termination via Lnk1e in C:\G16W\l103.exe at Fri May 12 18:25:00 2023.
 Job cpu time:       0 days  0 hours  4 minutes  8.0 seconds.
 Elapsed time:       0 days  0 hours  3 minutes 46.5 seconds.
 File lengths (MBytes):  RWF=     10 Int=      0 D2E=      0 Chk=      2 Scr=      1
