 Entering Link 1 = C:\G16W\l1.exe PID=     11012.
  
 Copyright (c) 1988-2019, Gaussian, Inc.  All Rights Reserved.
  
 This is part of the Gaussian(R) 16 program.  It is based on
 the Gaussian(R) 09 system (copyright 2009, Gaussian, Inc.),
 the Gaussian(R) 03 system (copyright 2003, Gaussian, Inc.),
 the Gaussian(R) 98 system (copyright 1998, Gaussian, Inc.),
 the Gaussian(R) 94 system (copyright 1995, Gaussian, Inc.),
 the Gaussian 92(TM) system (copyright 1992, Gaussian, Inc.),
 the Gaussian 90(TM) system (copyright 1990, Gaussian, Inc.),
 the Gaussian 88(TM) system (copyright 1988, Gaussian, Inc.),
 the Gaussian 86(TM) system (copyright 1986, Carnegie Mellon
 University), and the Gaussian 82(TM) system (copyright 1983,
 Carnegie Mellon University). Gaussian is a federally registered
 trademark of Gaussian, Inc.
  
 This software contains proprietary and confidential information,
 including trade secrets, belonging to Gaussian, Inc.
  
 This software is provided under written license and may be
 used, copied, transmitted, or stored only in accord with that
 written license.
  
 The following legend is applicable only to US Government
 contracts under FAR:
  
                    RESTRICTED RIGHTS LEGEND
  
 Use, reproduction and disclosure by the US Government is
 subject to restrictions as set forth in subparagraphs (a)
 and (c) of the Commercial Computer Software - Restricted
 Rights clause in FAR 52.227-19.
  
 Gaussian, Inc.
 340 Quinnipiac St., Bldg. 40, Wallingford CT 06492
  
  
 ---------------------------------------------------------------
 Warning -- This program may not be used in any manner that
 competes with the business of Gaussian, Inc. or will provide
 assistance to any competitor of Gaussian, Inc.  The licensee
 of this program is prohibited from giving any competitor of
 Gaussian, Inc. access to this program.  By using this program,
 the user acknowledges that Gaussian, Inc. is engaged in the
 business of creating and licensing software in the field of
 computational chemistry and represents and warrants to the
 licensee that it is not a competitor of Gaussian, Inc. and that
 it will not use this program in any manner prohibited above.
 ---------------------------------------------------------------
  

 Cite this work as:
 Gaussian 16, Revision C.01,
 M. J. Frisch, G. W. Trucks, H. B. Schlegel, G. E. Scuseria, 
 M. A. Robb, J. R. Cheeseman, G. Scalmani, V. Barone, 
 G. A. Petersson, H. Nakatsuji, X. Li, M. Caricato, A. V. Marenich, 
 J. Bloino, B. G. Janesko, R. Gomperts, B. Mennucci, H. P. Hratchian, 
 J. V. Ortiz, A. F. Izmaylov, J. L. Sonnenberg, D. Williams-Young, 
 F. Ding, F. Lipparini, F. Egidi, J. Goings, B. Peng, A. Petrone, 
 T. Henderson, D. Ranasinghe, V. G. Zakrzewski, J. Gao, N. Rega, 
 G. Zheng, W. Liang, M. Hada, M. Ehara, K. Toyota, R. Fukuda, 
 J. Hasegawa, M. Ishida, T. Nakajima, Y. Honda, O. Kitao, H. Nakai, 
 T. Vreven, K. Throssell, J. A. Montgomery, Jr., J. E. Peralta, 
 F. Ogliaro, M. J. Bearpark, J. J. Heyd, E. N. Brothers, K. N. Kudin, 
 V. N. Staroverov, T. A. Keith, R. Kobayashi, J. Normand, 
 K. Raghavachari, A. P. Rendell, J. C. Burant, S. S. Iyengar, 
 J. Tomasi, M. Cossi, J. M. Millam, M. Klene, C. Adamo, R. Cammi, 
 J. W. Ochterski, R. L. Martin, K. Morokuma, O. Farkas, 
 J. B. Foresman, and D. J. Fox, Gaussian, Inc., Wallingford CT, 2019.
 
 ******************************************
 Gaussian 16:  EM64W-G16RevC.01 30-May-2019
                10-May-2023 
 ******************************************
 %chk=C:\Calculation\20230510.2\(CO1)1(H2O)1.chk
 ----------------------------------------------
 # opt freq b3lyp/aug-cc-pvdz geom=connectivity
 ----------------------------------------------
 1/18=20,19=15,26=3,38=1,57=2/1,3;
 2/9=110,12=2,17=6,18=5,40=1/2;
 3/5=16,7=10,11=2,25=1,30=1,71=1,74=-5/1,2,3;
 4//1;
 5/5=2,38=5/2;
 6/7=2,8=2,9=2,10=2,28=1/1;
 7//1,2,3,16;
 1/18=20,19=15,26=3/3(2);
 2/9=110/2;
 99//99;
 2/9=110/2;
 3/5=16,7=10,11=2,25=1,30=1,71=1,74=-5/1,2,3;
 4/5=5,16=3,69=1/1;
 5/5=2,38=5/2;
 7//1,2,3,16;
 1/18=20,19=15,26=3/3(-5);
 2/9=110/2;
 6/7=2,8=2,9=2,10=2,19=2,28=1/1;
 99/9=1/99;
 -------------------
 Title Card Required
 -------------------
 Symbolic Z-matrix:
 Charge =  0 Multiplicity = 1
 C                    -5.58087   2.83599   0. 
 O                    -4.7836    3.49658   0. 
 O                    -6.2515    2.12706   0.02241 
 H                    -6.15508   1.17192   0.02047 
 H                    -7.18166   2.35538  -0.04288 
 
 Add virtual bond connecting atoms O3         and C1         Dist= 1.84D+00.

 GradGradGradGradGradGradGradGradGradGradGradGradGradGradGradGradGradGrad
 Berny optimization.
 Initialization pass.
                           ----------------------------
                           !    Initial Parameters    !
                           ! (Angstroms and Degrees)  !
 --------------------------                            --------------------------
 ! Name  Definition              Value          Derivative Info.                !
 --------------------------------------------------------------------------------
 ! R1    R(1,2)                  1.0354         estimate D2E/DX2                !
 ! R2    R(1,3)                  0.9761         estimate D2E/DX2                !
 ! R3    R(3,4)                  0.96           estimate D2E/DX2                !
 ! R4    R(3,5)                  0.96           estimate D2E/DX2                !
 ! A1    A(1,3,4)              130.8094         estimate D2E/DX2                !
 ! A2    A(1,3,5)              119.4317         estimate D2E/DX2                !
 ! A3    A(4,3,5)              109.5            estimate D2E/DX2                !
 ! A4    L(2,1,3,4,-1)         173.0524         estimate D2E/DX2                !
 ! A5    L(2,1,3,4,-2)         177.1882         estimate D2E/DX2                !
 ! D1    D(1,3,5,4)            174.7739         estimate D2E/DX2                !
 --------------------------------------------------------------------------------
 Trust Radius=3.00D-01 FncErr=1.00D-07 GrdErr=1.00D-06 EigMax=2.50D+02 EigMin=1.00D-04
 Number of steps in this run=     20 maximum allowed number of steps=    100.
 GradGradGradGradGradGradGradGradGradGradGradGradGradGradGradGradGradGrad

                          Input orientation:                          
 ---------------------------------------------------------------------
 Center     Atomic      Atomic             Coordinates (Angstroms)
 Number     Number       Type             X           Y           Z
 ---------------------------------------------------------------------
      1          6           0       -5.580866    2.835991    0.000000
      2          8           0       -4.783599    3.496582    0.000000
      3          8           0       -6.251498    2.127061    0.022408
      4          1           0       -6.155083    1.171917    0.020468
      5          1           0       -7.181663    2.355384   -0.042876
 ---------------------------------------------------------------------
                    Distance matrix (angstroms):
                    1          2          3          4          5
     1  C    0.000000
     2  O    1.035382   0.000000
     3  O    0.976130   2.007690   0.000000
     4  H    1.760479   2.699158   0.960000   0.000000
     5  H    1.671937   2.656103   0.960000   1.567952   0.000000
 Stoichiometry    CH2O2
 Framework group  C1[X(CH2O2)]
 Deg. of freedom     9
 Full point group                 C1      NOp   1
 Largest Abelian subgroup         C1      NOp   1
 Largest concise Abelian subgroup C1      NOp   1
                         Standard orientation:                         
 ---------------------------------------------------------------------
 Center     Atomic      Atomic             Coordinates (Angstroms)
 Number     Number       Type             X           Y           Z
 ---------------------------------------------------------------------
      1          6           0       -0.107461    0.044131    0.004017
      2          8           0       -1.140934   -0.018605    0.000348
      3          8           0        0.866728   -0.015814   -0.009915
      4          1           0        1.449014   -0.778124    0.027840
      5          1           0        1.389396    0.788690    0.024593
 ---------------------------------------------------------------------
 Rotational constants (GHZ):         397.0196337          13.7078779          13.2524219
 Standard basis: Aug-CC-pVDZ (5D, 7F)
 There are    93 symmetry adapted cartesian basis functions of A   symmetry.
 There are    87 symmetry adapted basis functions of A   symmetry.
    87 basis functions,   151 primitive gaussians,    93 cartesian basis functions
    12 alpha electrons       12 beta electrons
       nuclear repulsion energy        83.4448842021 Hartrees.
 NAtoms=    5 NActive=    5 NUniq=    5 SFac= 1.00D+00 NAtFMM=   60 NAOKFM=F Big=F
 Integral buffers will be    131072 words long.
 Raffenetti 2 integral format.
 Two-electron integral symmetry is turned on.
 One-electron integrals computed using PRISM.
 NBasis=    87 RedAO= T EigKep=  3.24D-04  NBF=    87
 NBsUse=    87 1.00D-06 EigRej= -1.00D+00 NBFU=    87
 ExpMin= 2.97D-02 ExpMax= 1.17D+04 ExpMxC= 4.01D+02 IAcc=3 IRadAn=         5 AccDes= 0.00D+00
 Harris functional with IExCor=  402 and IRadAn=       5 diagonalized for initial guess.
 HarFok:  IExCor=  402 AccDes= 0.00D+00 IRadAn=         5 IDoV= 1 UseB2=F ITyADJ=14
 ICtDFT=  3500011 ScaDFX=  1.000000  1.000000  1.000000  1.000000
 FoFCou: FMM=F IPFlag=           0 FMFlag=      100000 FMFlg1=           0
         NFxFlg=           0 DoJE=T BraDBF=F KetDBF=T FulRan=T
         wScrn=  0.000000 ICntrl=       500 IOpCl=  0 I1Cent=   200000004 NGrid=           0
         NMat0=    1 NMatS0=      1 NMatT0=    0 NMatD0=    1 NMtDS0=    0 NMtDT0=    0
 Petite list used in FoFCou.
 Keep R1 ints in memory in canonical form, NReq=8247801.
 Requested convergence on RMS density matrix=1.00D-08 within 128 cycles.
 Requested convergence on MAX density matrix=1.00D-06.
 Requested convergence on             energy=1.00D-06.
 No special actions if energy rises.
 SCF Done:  E(RB3LYP) =  -189.185048974     A.U. after   17 cycles
            NFock= 17  Conv=0.62D-08     -V/T= 1.9888

 **********************************************************************

            Population analysis using the SCF Density.

 **********************************************************************

 Orbital symmetries:
       Occupied  (A) (A) (A) (A) (A) (A) (A) (A) (A) (A) (A) (A)
       Virtual   (A) (A) (A) (A) (A) (A) (A) (A) (A) (A) (A) (A)
                 (A) (A) (A) (A) (A) (A) (A) (A) (A) (A) (A) (A)
                 (A) (A) (A) (A) (A) (A) (A) (A) (A) (A) (A) (A)
                 (A) (A) (A) (A) (A) (A) (A) (A) (A) (A) (A) (A)
                 (A) (A) (A) (A) (A) (A) (A) (A) (A) (A) (A) (A)
                 (A) (A) (A) (A) (A) (A) (A) (A) (A) (A) (A) (A)
                 (A) (A) (A)
 The electronic state is 1-A.
 Alpha  occ. eigenvalues --  -19.42301 -19.26545 -10.40891  -1.47837  -1.26342
 Alpha  occ. eigenvalues --   -0.94469  -0.86376  -0.74391  -0.58925  -0.53139
 Alpha  occ. eigenvalues --   -0.49410  -0.13924
 Alpha virt. eigenvalues --   -0.10616  -0.02076  -0.00522  -0.00140   0.02653
 Alpha virt. eigenvalues --    0.03349   0.05421   0.07136   0.08385   0.09595
 Alpha virt. eigenvalues --    0.11051   0.16104   0.16214   0.17390   0.17430
 Alpha virt. eigenvalues --    0.19789   0.22688   0.25952   0.29958   0.34646
 Alpha virt. eigenvalues --    0.34984   0.35928   0.36197   0.40473   0.41851
 Alpha virt. eigenvalues --    0.47814   0.49768   0.55499   0.55707   0.60628
 Alpha virt. eigenvalues --    0.60899   0.65214   0.70268   0.72549   0.77022
 Alpha virt. eigenvalues --    0.80917   0.90089   0.91844   0.93815   1.03231
 Alpha virt. eigenvalues --    1.06615   1.07904   1.10268   1.16548   1.36557
 Alpha virt. eigenvalues --    1.39568   1.44771   1.45483   1.53663   1.54430
 Alpha virt. eigenvalues --    1.67993   1.74755   1.85288   1.91968   1.95403
 Alpha virt. eigenvalues --    1.95939   2.04877   2.17152   2.29505   2.39678
 Alpha virt. eigenvalues --    2.49831   2.51652   2.58560   3.00941   3.03386
 Alpha virt. eigenvalues --    3.11152   3.19174   3.22857   3.37324   3.53772
 Alpha virt. eigenvalues --    3.76454   3.77615   4.04585   4.25804   5.76774
          Condensed to atoms (all electrons):
               1          2          3          4          5
     1  C    5.874089   0.472733   0.021469   0.375331  -0.185277
     2  O    0.472733   7.506298   0.067888  -0.079394  -0.031042
     3  O    0.021469   0.067888   7.142215  -0.658435   0.402878
     4  H    0.375331  -0.079394  -0.658435   2.246824  -0.085345
     5  H   -0.185277  -0.031042   0.402878  -0.085345   0.628959
 Mulliken charges:
               1
     1  C   -0.558346
     2  O    0.063517
     3  O    1.023984
     4  H   -0.798981
     5  H    0.269826
 Sum of Mulliken charges =   0.00000
 Mulliken charges with hydrogens summed into heavy atoms:
               1
     1  C   -0.558346
     2  O    0.063517
     3  O    0.494829
 Electronic spatial extent (au):  <R**2>=            132.4209
 Charge=              0.0000 electrons
 Dipole moment (field-independent basis, Debye):
    X=             -0.0560    Y=              1.7442    Z=             -0.1294  Tot=              1.7499
 Quadrupole moment (field-independent basis, Debye-Ang):
   XX=            -25.2765   YY=            -25.1633   ZZ=            -23.1092
   XY=              4.3556   XZ=             -0.1642   YZ=              0.1051
 Traceless Quadrupole moment (field-independent basis, Debye-Ang):
   XX=             -0.7602   YY=             -0.6470   ZZ=              1.4071
   XY=              4.3556   XZ=             -0.1642   YZ=              0.1051
 Octapole moment (field-independent basis, Debye-Ang**2):
  XXX=            -24.3670  YYY=              5.0602  ZZZ=             -0.9400  XYY=             -9.9422
  XXY=             11.0172  XXZ=             -0.5099  XZZ=             -8.5097  YZZ=              1.0268
  YYZ=             -0.3812  XYZ=              0.1737
 Hexadecapole moment (field-independent basis, Debye-Ang**3):
 XXXX=           -202.1174 YYYY=            -89.4437 ZZZZ=            -59.8972 XXXY=             23.4315
 XXXZ=             -1.3616 YYYX=             13.4463 YYYZ=              0.3078 ZZZX=             -1.1121
 ZZZY=              0.2458 XXYY=            -49.6395 XXZZ=            -42.8838 YYZZ=            -24.7135
 XXYZ=              0.3628 YYXZ=             -0.4538 ZZXY=              3.3078
 N-N= 8.344488420210D+01 E-N=-6.106159140032D+02  KE= 1.913334470064D+02
 Calling FoFJK, ICntrl=      2127 FMM=F ISym2X=0 I1Cent= 0 IOpClX= 0 NMat=1 NMatS=1 NMatT=0.
 ***** Axes restored to original set *****
 -------------------------------------------------------------------
 Center     Atomic                   Forces (Hartrees/Bohr)
 Number     Number              X              Y              Z
 -------------------------------------------------------------------
      1        6           0.297122090    0.587881088   -0.024678529
      2        8           0.383168392    0.218334220    0.001443176
      3        8          -0.694178994   -0.589901080    0.021633766
      4        1           0.036913793   -0.215348110    0.002054658
      5        1          -0.023025280   -0.000966118   -0.000453071
 -------------------------------------------------------------------
 Cartesian Forces:  Max     0.694178994 RMS     0.317027171

 GradGradGradGradGradGradGradGradGradGradGradGradGradGradGradGradGradGrad
 Berny optimization.
 FormGI is forming the generalized inverse of G from B-inverse, IUseBI=4.
 Internal  Forces:  Max     1.053420658 RMS     0.370065950
 Search for a local minimum.
 Step number   1 out of a maximum of   20
 All quantities printed in internal units (Hartrees-Bohrs-Radians)
 Mixed Optimization -- RFO/linear search
 Second derivative matrix not updated -- first step.
 The second derivative matrix:
                          R1        R2        R3        R4        A1
           R1           2.61888
           R2           0.00000   3.95604
           R3           0.00000   0.00000   0.55473
           R4           0.00000   0.00000   0.00000   0.55473
           A1           0.00000   0.00000   0.00000   0.00000   0.16000
           A2           0.00000   0.00000   0.00000   0.00000   0.00000
           A3           0.00000   0.00000   0.00000   0.00000   0.00000
           A4           0.00000   0.00000   0.00000   0.00000   0.00000
           A5           0.00000   0.00000   0.00000   0.00000   0.00000
           D1           0.00000   0.00000   0.00000   0.00000   0.00000
                          A2        A3        A4        A5        D1
           A2           0.16000
           A3           0.00000   0.16000
           A4           0.00000   0.00000   0.07299
           A5           0.00000   0.00000   0.00000   0.07299
           D1           0.00000   0.00000   0.00000   0.00000   0.01558
 ITU=  0
     Eigenvalues ---    0.01605   0.07299   0.07299   0.16000   0.16000
     Eigenvalues ---    0.55473   0.55473   2.61888   3.95604
 RFO step:  Lambda=-4.13130794D-01 EMin= 1.60471990D-02
 Linear search not attempted -- first point.
 Maximum step size (   0.300) exceeded in Quadratic search.
    -- Step size scaled by   0.630
 Iteration  1 RMS(Cart)=  0.11192354 RMS(Int)=  0.00777478
 Iteration  2 RMS(Cart)=  0.00863558 RMS(Int)=  0.00004573
 Iteration  3 RMS(Cart)=  0.00004733 RMS(Int)=  0.00000142
 Iteration  4 RMS(Cart)=  0.00000000 RMS(Int)=  0.00000142
 Variable       Old X    -DE/DX   Delta X   Delta X   Delta X     New X
                                 (Linear)    (Quad)   (Total)
    R1        1.95659   0.43435   0.00000   0.09024   0.09024   2.04683
    R2        1.84462   1.05342   0.00000   0.15188   0.15188   1.99650
    R3        1.81414   0.21798   0.00000   0.14187   0.14187   1.95601
    R4        1.81414   0.02211   0.00000   0.01439   0.01439   1.82853
    A1        2.28305  -0.02211   0.00000  -0.02430  -0.02430   2.25875
    A2        2.08448   0.01702   0.00000   0.01872   0.01871   2.10319
    A3        1.91114   0.00531   0.00000   0.00584   0.00584   1.91697
    A4        3.02033  -0.14940   0.00000  -0.19360  -0.19360   2.82673
    A5        3.09252   0.00027   0.00000   0.00035   0.00035   3.09287
    D1        3.05038   0.00073   0.00000   0.00107   0.00107   3.05145
         Item               Value     Threshold  Converged?
 Maximum Force            1.053421     0.000450     NO 
 RMS     Force            0.370066     0.000300     NO 
 Maximum Displacement     0.205211     0.001800     NO 
 RMS     Displacement     0.110871     0.001200     NO 
 Predicted change in Energy=-1.968661D-01
 GradGradGradGradGradGradGradGradGradGradGradGradGradGradGradGradGradGrad

                          Input orientation:                          
 ---------------------------------------------------------------------
 Center     Atomic      Atomic             Coordinates (Angstroms)
 Number     Number       Type             X           Y           Z
 ---------------------------------------------------------------------
      1          6           0       -5.604351    2.933337   -0.002956
      2          8           0       -4.675006    3.489632    0.002911
      3          8           0       -6.298196    2.136986    0.021440
      4          1           0       -6.127265    1.116122    0.021420
      5          1           0       -7.247890    2.310859   -0.042814
 ---------------------------------------------------------------------
                    Distance matrix (angstroms):
                    1          2          3          4          5
     1  C    0.000000
     2  O    1.083134   0.000000
     3  O    1.056500   2.112994   0.000000
     4  H    1.891112   2.782615   1.035075   0.000000
     5  H    1.757922   2.830429   0.967615   1.639306   0.000000
 Stoichiometry    CH2O2
 Framework group  C1[X(CH2O2)]
 Deg. of freedom     9
 Full point group                 C1      NOp   1
 Largest Abelian subgroup         C1      NOp   1
 Largest concise Abelian subgroup C1      NOp   1
                         Standard orientation:                         
 ---------------------------------------------------------------------
 Center     Atomic      Atomic             Coordinates (Angstroms)
 Number     Number       Type             X           Y           Z
 ---------------------------------------------------------------------
      1          6           0       -0.127080    0.130649    0.003773
      2          8           0       -1.194864   -0.051025    0.000438
      3          8           0        0.917932   -0.024113   -0.010067
      4          1           0        1.451656   -0.910196    0.027042
      5          1           0        1.526283    0.727410    0.027347
 ---------------------------------------------------------------------
 Rotational constants (GHZ):         310.9896214          12.3887221          11.9158103
 Standard basis: Aug-CC-pVDZ (5D, 7F)
 There are    93 symmetry adapted cartesian basis functions of A   symmetry.
 There are    87 symmetry adapted basis functions of A   symmetry.
    87 basis functions,   151 primitive gaussians,    93 cartesian basis functions
    12 alpha electrons       12 beta electrons
       nuclear repulsion energy        78.8112029370 Hartrees.
 NAtoms=    5 NActive=    5 NUniq=    5 SFac= 1.00D+00 NAtFMM=   60 NAOKFM=F Big=F
 Integral buffers will be    131072 words long.
 Raffenetti 2 integral format.
 Two-electron integral symmetry is turned on.
 One-electron integrals computed using PRISM.
 NBasis=    87 RedAO= T EigKep=  4.00D-04  NBF=    87
 NBsUse=    87 1.00D-06 EigRej= -1.00D+00 NBFU=    87
 Initial guess from the checkpoint file:  "C:\Calculation\20230510.2\(CO1)1(H2O)1.chk"
 B after Tr=     0.000000    0.000000    0.000000
         Rot=    0.999989   -0.001979    0.000050    0.004283 Ang=  -0.54 deg.
 ExpMin= 2.97D-02 ExpMax= 1.17D+04 ExpMxC= 4.01D+02 IAcc=3 IRadAn=         5 AccDes= 0.00D+00
 Harris functional with IExCor=  402 and IRadAn=       5 diagonalized for initial guess.
 HarFok:  IExCor=  402 AccDes= 0.00D+00 IRadAn=         5 IDoV= 1 UseB2=F ITyADJ=14
 ICtDFT=  3500011 ScaDFX=  1.000000  1.000000  1.000000  1.000000
 FoFCou: FMM=F IPFlag=           0 FMFlag=      100000 FMFlg1=           0
         NFxFlg=           0 DoJE=T BraDBF=F KetDBF=T FulRan=T
         wScrn=  0.000000 ICntrl=       500 IOpCl=  0 I1Cent=   200000004 NGrid=           0
         NMat0=    1 NMatS0=      1 NMatT0=    0 NMatD0=    1 NMtDS0=    0 NMtDT0=    0
 Petite list used in FoFCou.
 Keep R1 ints in memory in canonical form, NReq=8247801.
 Requested convergence on RMS density matrix=1.00D-08 within 128 cycles.
 Requested convergence on MAX density matrix=1.00D-06.
 Requested convergence on             energy=1.00D-06.
 No special actions if energy rises.
 SCF Done:  E(RB3LYP) =  -189.394373291     A.U. after   14 cycles
            NFock= 14  Conv=0.41D-08     -V/T= 1.9952
 Calling FoFJK, ICntrl=      2127 FMM=F ISym2X=0 I1Cent= 0 IOpClX= 0 NMat=1 NMatS=1 NMatT=0.
 ***** Axes restored to original set *****
 -------------------------------------------------------------------
 Center     Atomic                   Forces (Hartrees/Bohr)
 Number     Number              X              Y              Z
 -------------------------------------------------------------------
      1        6           0.074708061    0.417556899   -0.017588380
      2        8           0.266872814    0.075410154    0.003433350
      3        8          -0.371305624   -0.356959094    0.011420313
      4        1           0.028896574   -0.134004901    0.002146976
      5        1           0.000828175   -0.002003058    0.000587741
 -------------------------------------------------------------------
 Cartesian Forces:  Max     0.417556899 RMS     0.189979657

 GradGradGradGradGradGradGradGradGradGradGradGradGradGradGradGradGradGrad
 Berny optimization.
 Using GEDIIS/GDIIS optimizer.
 FormGI is forming the generalized inverse of G from B-inverse, IUseBI=4.
 Internal  Forces:  Max     0.596214812 RMS     0.216334147
 Search for a local minimum.
 Step number   2 out of a maximum of   20
 All quantities printed in internal units (Hartrees-Bohrs-Radians)
 Mixed Optimization -- RFO/linear search
 Update second derivatives using D2CorX and points    1    2
 DE= -2.09D-01 DEPred=-1.97D-01 R= 1.06D+00
 TightC=F SS=  1.41D+00  RLast= 3.00D-01 DXNew= 5.0454D-01 9.0001D-01
 Trust test= 1.06D+00 RLast= 3.00D-01 DXMaxT set to 5.05D-01
 The second derivative matrix:
                          R1        R2        R3        R4        A1
           R1           2.46426
           R2          -0.33542   3.26154
           R3          -0.00766   0.00858   0.57350
           R4           0.02515   0.07202   0.01451   0.55984
           A1          -0.01456  -0.04141  -0.00819  -0.00281   0.16154
           A2           0.01259   0.03567   0.00698   0.00236  -0.00129
           A3           0.00209   0.00608   0.00128   0.00048  -0.00026
           A4           0.02423   0.06117   0.00774   0.00059  -0.00027
           A5           0.00089   0.00244   0.00044   0.00013  -0.00007
           D1           0.00044   0.00121   0.00022   0.00006  -0.00004
                          A2        A3        A4        A5        D1
           A2           0.16108
           A3           0.00022   0.16004
           A4           0.00020   0.00008   0.07143
           A5           0.00006   0.00001   0.00000   0.07299
           D1           0.00003   0.00001   0.00000   0.00000   0.01558
 ITU=  1  0
 Use linear search instead of GDIIS.
 Linear search step of   0.600 exceeds DXMaxT=   0.505 but not scaled.
 Quartic linear search produced a step of  2.00000.
 Iteration  1 RMS(Cart)=  0.14338787 RMS(Int)=  0.07888545
 Iteration  2 RMS(Cart)=  0.08681522 RMS(Int)=  0.00909916
 Iteration  3 RMS(Cart)=  0.01058466 RMS(Int)=  0.00004571
 Iteration  4 RMS(Cart)=  0.00005007 RMS(Int)=  0.00000788
 Iteration  5 RMS(Cart)=  0.00000000 RMS(Int)=  0.00000788
 Variable       Old X    -DE/DX   Delta X   Delta X   Delta X     New X
                                 (Linear)    (Quad)   (Total)
    R1        2.04683   0.26773   0.18048   0.00000   0.18048   2.22731
    R2        1.99650   0.59621   0.30375   0.00000   0.30375   2.30025
    R3        1.95601   0.13696   0.28374   0.00000   0.28374   2.23975
    R4        1.82853  -0.00121   0.02878   0.00000   0.02878   1.85731
    A1        2.25875  -0.00941  -0.04860   0.00000  -0.04861   2.21014
    A2        2.10319   0.00643   0.03743   0.00000   0.03741   2.14060
    A3        1.91697   0.00308   0.01168   0.00000   0.01166   1.92864
    A4        2.82673  -0.14817  -0.38720   0.00000  -0.38720   2.43953
    A5        3.09287  -0.00027   0.00070   0.00000   0.00070   3.09356
    D1        3.05145   0.00045   0.00214   0.00000   0.00214   3.05358
         Item               Value     Threshold  Converged?
 Maximum Force            0.596215     0.000450     NO 
 RMS     Force            0.216334     0.000300     NO 
 Maximum Displacement     0.397677     0.001800     NO 
 RMS     Displacement     0.208875     0.001200     NO 
 Predicted change in Energy=-1.322262D-01
 GradGradGradGradGradGradGradGradGradGradGradGradGradGradGradGradGradGrad

                          Input orientation:                          
 ---------------------------------------------------------------------
 Center     Atomic      Atomic             Coordinates (Angstroms)
 Number     Number       Type             X           Y           Z
 ---------------------------------------------------------------------
      1          6           0       -5.657223    3.143779   -0.010407
      2          8           0       -4.509866    3.412781    0.009626
      3          8           0       -6.382841    2.166907    0.019110
      4          1           0       -6.041122    1.032022    0.023694
      5          1           0       -7.361658    2.231447   -0.042023
 ---------------------------------------------------------------------
                    Distance matrix (angstroms):
                    1          2          3          4          5
     1  C    0.000000
     2  O    1.178640   0.000000
     3  O    1.217239   2.249517   0.000000
     4  H    2.146639   2.830717   1.185225   0.000000
     5  H    1.933507   3.087221   0.982845   1.785148   0.000000
 Stoichiometry    CH2O2
 Framework group  C1[X(CH2O2)]
 Deg. of freedom     9
 Full point group                 C1      NOp   1
 Largest Abelian subgroup         C1      NOp   1
 Largest concise Abelian subgroup C1      NOp   1
                         Standard orientation:                         
 ---------------------------------------------------------------------
 Center     Atomic      Atomic             Coordinates (Angstroms)
 Number     Number       Type             X           Y           Z
 ---------------------------------------------------------------------
      1          6           0       -0.167853    0.325520    0.004766
      2          8           0       -1.256393   -0.126420   -0.000070
      3          8           0        0.991616   -0.044713   -0.010350
      4          1           0        1.376777   -1.165029    0.025715
      5          1           0        1.748550    0.580974    0.029049
 ---------------------------------------------------------------------
 Rotational constants (GHZ):         155.3017623          10.9603969          10.2391883
 Standard basis: Aug-CC-pVDZ (5D, 7F)
 There are    93 symmetry adapted cartesian basis functions of A   symmetry.
 There are    87 symmetry adapted basis functions of A   symmetry.
    87 basis functions,   151 primitive gaussians,    93 cartesian basis functions
    12 alpha electrons       12 beta electrons
       nuclear repulsion energy        71.6369668945 Hartrees.
 NAtoms=    5 NActive=    5 NUniq=    5 SFac= 1.00D+00 NAtFMM=   60 NAOKFM=F Big=F
 Integral buffers will be    131072 words long.
 Raffenetti 2 integral format.
 Two-electron integral symmetry is turned on.
 One-electron integrals computed using PRISM.
 NBasis=    87 RedAO= T EigKep=  5.89D-04  NBF=    87
 NBsUse=    87 1.00D-06 EigRej= -1.00D+00 NBFU=    87
 Initial guess from the checkpoint file:  "C:\Calculation\20230510.2\(CO1)1(H2O)1.chk"
 B after Tr=     0.000000    0.000000    0.000000
         Rot=    0.999970   -0.002379    0.000117    0.007366 Ang=  -0.89 deg.
 ExpMin= 2.97D-02 ExpMax= 1.17D+04 ExpMxC= 4.01D+02 IAcc=3 IRadAn=         5 AccDes= 0.00D+00
 Harris functional with IExCor=  402 and IRadAn=       5 diagonalized for initial guess.
 HarFok:  IExCor=  402 AccDes= 0.00D+00 IRadAn=         5 IDoV= 1 UseB2=F ITyADJ=14
 ICtDFT=  3500011 ScaDFX=  1.000000  1.000000  1.000000  1.000000
 FoFCou: FMM=F IPFlag=           0 FMFlag=      100000 FMFlg1=           0
         NFxFlg=           0 DoJE=T BraDBF=F KetDBF=T FulRan=T
         wScrn=  0.000000 ICntrl=       500 IOpCl=  0 I1Cent=   200000004 NGrid=           0
         NMat0=    1 NMatS0=      1 NMatT0=    0 NMatD0=    1 NMtDS0=    0 NMtDT0=    0
 Petite list used in FoFCou.
 Keep R1 ints in memory in canonical form, NReq=8247801.
 Requested convergence on RMS density matrix=1.00D-08 within 128 cycles.
 Requested convergence on MAX density matrix=1.00D-06.
 Requested convergence on             energy=1.00D-06.
 No special actions if energy rises.
 SCF Done:  E(RB3LYP) =  -189.593074207     A.U. after   13 cycles
            NFock= 13  Conv=0.14D-08     -V/T= 2.0034
 Calling FoFJK, ICntrl=      2127 FMM=F ISym2X=0 I1Cent= 0 IOpClX= 0 NMat=1 NMatS=1 NMatT=0.
 ***** Axes restored to original set *****
 -------------------------------------------------------------------
 Center     Atomic                   Forces (Hartrees/Bohr)
 Number     Number              X              Y              Z
 -------------------------------------------------------------------
      1        6           0.029345273    0.213677052   -0.007245548
      2        8           0.026897256   -0.042461652    0.001584194
      3        8          -0.072191808   -0.164199658    0.004266407
      4        1           0.003851109   -0.018021787    0.001372562
      5        1           0.012098169    0.011006045    0.000022385
 -------------------------------------------------------------------
 Cartesian Forces:  Max     0.213677052 RMS     0.073892208

 GradGradGradGradGradGradGradGradGradGradGradGradGradGradGradGradGradGrad
 Berny optimization.
 Using GEDIIS/GDIIS optimizer.
 FormGI is forming the generalized inverse of G from B-inverse, IUseBI=4.
 Internal  Forces:  Max     0.171056155 RMS     0.064474403
 Search for a local minimum.
 Step number   3 out of a maximum of   20
 All quantities printed in internal units (Hartrees-Bohrs-Radians)
 Mixed Optimization -- RFO/linear search
 Update second derivatives using D2CorX and points    2    3
 The second derivative matrix:
                          R1        R2        R3        R4        A1
           R1           2.45681
           R2          -0.64880   1.90584
           R3          -0.01525  -0.15053   0.56793
           R4          -0.00367  -0.01886   0.00034   0.55468
           A1          -0.01377  -0.01714  -0.00751  -0.00060   0.16147
           A2           0.01905   0.02749   0.00977   0.00080  -0.00177
           A3          -0.00515  -0.01019  -0.00219  -0.00020   0.00029
           A4          -0.02064  -0.01255  -0.01341  -0.00100   0.00311
           A5          -0.00006  -0.00014  -0.00002   0.00000   0.00000
           D1           0.00080   0.00133   0.00038   0.00003  -0.00006
                          A2        A3        A4        A5        D1
           A2           0.16211
           A3          -0.00032   0.16003
           A4          -0.00382   0.00068   0.07934
           A5           0.00000   0.00000   0.00000   0.07299
           D1           0.00007  -0.00001  -0.00014   0.00000   0.01558
 ITU=  0  1  0
 Use linear search instead of GDIIS.
 Linear search step of   0.921 exceeds DXMaxT=   0.505 but not scaled.
 Quartic linear search produced a step of  1.53563.
 Iteration  1 RMS(Cart)=  0.14066134 RMS(Int)=  0.17501204
 Iteration  2 RMS(Cart)=  0.10905397 RMS(Int)=  0.07729807
 Iteration  3 RMS(Cart)=  0.10727477 RMS(Int)=  0.01401480
 Iteration  4 RMS(Cart)=  0.02267879 RMS(Int)=  0.00028876
 Iteration  5 RMS(Cart)=  0.00025369 RMS(Int)=  0.00001754
 Iteration  6 RMS(Cart)=  0.00000006 RMS(Int)=  0.00001754
 Variable       Old X    -DE/DX   Delta X   Delta X   Delta X     New X
                                 (Linear)    (Quad)   (Total)
    R1        2.22731   0.01652   0.27715   0.00000   0.27715   2.50445
    R2        2.30025   0.17106   0.46645   0.00000   0.46645   2.76670
    R3        2.23975   0.01839   0.43572   0.00000   0.43572   2.67547
    R4        1.85731  -0.01133   0.04420   0.00000   0.04420   1.90151
    A1        2.21014   0.00955  -0.07465   0.00000  -0.07469   2.13545
    A2        2.14060  -0.01578   0.05745   0.00000   0.05742   2.19802
    A3        1.92864   0.00615   0.01791   0.00000   0.01788   1.94651
    A4        2.43953  -0.10579  -0.59460   0.00000  -0.59460   1.84494
    A5        3.09356  -0.00027   0.00107   0.00000   0.00107   3.09464
    D1        3.05358  -0.00030   0.00328   0.00000   0.00328   3.05687
         Item               Value     Threshold  Converged?
 Maximum Force            0.171056     0.000450     NO 
 RMS     Force            0.064474     0.000300     NO 
 Maximum Displacement     0.656330     0.001800     NO 
 RMS     Displacement     0.316324     0.001200     NO 
 Predicted change in Energy=-1.138400D-01
 GradGradGradGradGradGradGradGradGradGradGradGradGradGradGradGradGradGrad

                          Input orientation:                          
 ---------------------------------------------------------------------
 Center     Atomic      Atomic             Coordinates (Angstroms)
 Number     Number       Type             X           Y           Z
 ---------------------------------------------------------------------
      1          6           0       -5.721874    3.491094   -0.023359
      2          8           0       -4.443590    3.143875    0.019642
      3          8           0       -6.474322    2.235773    0.015449
      4          1           0       -5.837973    0.971101    0.027838
      5          1           0       -7.474950    2.145093   -0.039571
 ---------------------------------------------------------------------
                    Distance matrix (angstroms):
                    1          2          3          4          5
     1  C    0.000000
     2  O    1.325300   0.000000
     3  O    1.464075   2.224531   0.000000
     4  H    2.523185   2.581727   1.415799   0.000000
     5  H    2.210261   3.192212   1.006233   2.015563   0.000000
 Stoichiometry    CH2O2
 Framework group  C1[X(CH2O2)]
 Deg. of freedom     9
 Full point group                 C1      NOp   1
 Largest Abelian subgroup         C1      NOp   1
 Largest concise Abelian subgroup C1      NOp   1
                         Standard orientation:                         
 ---------------------------------------------------------------------
 Center     Atomic      Atomic             Coordinates (Angstroms)
 Number     Number       Type             X           Y           Z
 ---------------------------------------------------------------------
      1          6           0       -0.252106    0.655827    0.006009
      2          8           0       -1.201474   -0.268874   -0.001068
      3          8           0        1.014814   -0.077768   -0.010330
      4          1           0        1.072003   -1.491899    0.027752
      5          1           0        1.933915    0.330078    0.027375
 ---------------------------------------------------------------------
 Rotational constants (GHZ):          58.0040456          11.2079642           9.3941423
 Standard basis: Aug-CC-pVDZ (5D, 7F)
 There are    93 symmetry adapted cartesian basis functions of A   symmetry.
 There are    87 symmetry adapted basis functions of A   symmetry.
    87 basis functions,   151 primitive gaussians,    93 cartesian basis functions
    12 alpha electrons       12 beta electrons
       nuclear repulsion energy        64.8601802836 Hartrees.
 NAtoms=    5 NActive=    5 NUniq=    5 SFac= 1.00D+00 NAtFMM=   60 NAOKFM=F Big=F
 Integral buffers will be    131072 words long.
 Raffenetti 2 integral format.
 Two-electron integral symmetry is turned on.
 One-electron integrals computed using PRISM.
 NBasis=    87 RedAO= T EigKep=  1.02D-03  NBF=    87
 NBsUse=    87 1.00D-06 EigRej= -1.00D+00 NBFU=    87
 Initial guess from the checkpoint file:  "C:\Calculation\20230510.2\(CO1)1(H2O)1.chk"
 B after Tr=     0.000000    0.000000    0.000000
         Rot=    0.999987   -0.000491    0.000307    0.004977 Ang=  -0.57 deg.
 ExpMin= 2.97D-02 ExpMax= 1.17D+04 ExpMxC= 4.01D+02 IAcc=3 IRadAn=         5 AccDes= 0.00D+00
 Harris functional with IExCor=  402 and IRadAn=       5 diagonalized for initial guess.
 HarFok:  IExCor=  402 AccDes= 0.00D+00 IRadAn=         5 IDoV= 1 UseB2=F ITyADJ=14
 ICtDFT=  3500011 ScaDFX=  1.000000  1.000000  1.000000  1.000000
 FoFCou: FMM=F IPFlag=           0 FMFlag=      100000 FMFlg1=           0
         NFxFlg=           0 DoJE=T BraDBF=F KetDBF=T FulRan=T
         wScrn=  0.000000 ICntrl=       500 IOpCl=  0 I1Cent=   200000004 NGrid=           0
         NMat0=    1 NMatS0=      1 NMatT0=    0 NMatD0=    1 NMtDS0=    0 NMtDT0=    0
 Petite list used in FoFCou.
 Keep R1 ints in memory in canonical form, NReq=8247801.
 Requested convergence on RMS density matrix=1.00D-08 within 128 cycles.
 Requested convergence on MAX density matrix=1.00D-06.
 Requested convergence on             energy=1.00D-06.
 No special actions if energy rises.
 SCF Done:  E(RB3LYP) =  -189.616742267     A.U. after   13 cycles
            NFock= 13  Conv=0.53D-08     -V/T= 2.0087
 Calling FoFJK, ICntrl=      2127 FMM=F ISym2X=0 I1Cent= 0 IOpClX= 0 NMat=1 NMatS=1 NMatT=0.
 ***** Axes restored to original set *****
 -------------------------------------------------------------------
 Center     Atomic                   Forces (Hartrees/Bohr)
 Number     Number              X              Y              Z
 -------------------------------------------------------------------
      1        6           0.148619062   -0.030410053    0.004919597
      2        8          -0.138777269    0.043123867   -0.005349134
      3        8          -0.004303908   -0.087117835    0.000015787
      4        1          -0.026821204    0.062489515   -0.000169744
      5        1           0.021283319    0.011914507    0.000583493
 -------------------------------------------------------------------
 Cartesian Forces:  Max     0.148619062 RMS     0.061650452

 GradGradGradGradGradGradGradGradGradGradGradGradGradGradGradGradGradGrad
 Berny optimization.
 Using GEDIIS/GDIIS optimizer.
 FormGI is forming the generalized inverse of G from B-inverse, IUseBI=4.
 Internal  Forces:  Max     0.145325302 RMS     0.051801374
 Search for a local minimum.
 Step number   4 out of a maximum of   20
 All quantities printed in internal units (Hartrees-Bohrs-Radians)
 Mixed Optimization -- RFO/linear search
 Update second derivatives using D2CorX and points    3    4
 The second derivative matrix:
                          R1        R2        R3        R4        A1
           R1           2.29480
           R2          -1.00857   1.21496
           R3          -0.08462  -0.31354   0.53898
           R4          -0.00700  -0.03029  -0.00076   0.55476
           A1           0.01487   0.02574   0.00647   0.00076   0.16038
           A2          -0.01046  -0.01886  -0.00446  -0.00052  -0.00023
           A3          -0.00449  -0.00705  -0.00204  -0.00024  -0.00015
           A4          -0.05930  -0.01509  -0.03688  -0.00490  -0.00603
           A5          -0.00123  -0.00125  -0.00065  -0.00008  -0.00008
           D1           0.00019   0.00013   0.00011   0.00001   0.00002
                          A2        A3        A4        A5        D1
           A2           0.16013
           A3           0.00009   0.16006
           A4           0.00392   0.00212   0.13435
           A5           0.00005   0.00003   0.00087   0.07300
           D1          -0.00001  -0.00001  -0.00016   0.00000   0.01558
 ITU=  0  0  1  0
 Use linear search instead of GDIIS.
     Eigenvalues ---    0.01585   0.07298   0.11183   0.15242   0.16001
     Eigenvalues ---    0.28649   0.55477   0.88993   2.90300
 RFO step:  Lambda=-1.43835827D-02 EMin= 1.58500744D-02
 Quartic linear search produced a step of -0.42951.
 Iteration  1 RMS(Cart)=  0.11595427 RMS(Int)=  0.03511784
 Iteration  2 RMS(Cart)=  0.03582565 RMS(Int)=  0.00017159
 Iteration  3 RMS(Cart)=  0.00021257 RMS(Int)=  0.00006489
 Iteration  4 RMS(Cart)=  0.00000003 RMS(Int)=  0.00006489
 Variable       Old X    -DE/DX   Delta X   Delta X   Delta X     New X
                                 (Linear)    (Quad)   (Total)
    R1        2.50445  -0.14533  -0.11904  -0.05740  -0.17643   2.32802
    R2        2.76670   0.01597  -0.20034  -0.02577  -0.22611   2.54059
    R3        2.67547  -0.06788  -0.18715  -0.11596  -0.30311   2.37236
    R4        1.90151  -0.02227  -0.01898  -0.03713  -0.05612   1.84539
    A1        2.13545  -0.00102   0.03208   0.03889   0.07085   2.20631
    A2        2.19802  -0.00900  -0.02466  -0.08334  -0.10812   2.08990
    A3        1.94651   0.00997  -0.00768   0.04279   0.03500   1.98151
    A4        1.84494   0.01314   0.25538  -0.18946   0.06592   1.91086
    A5        3.09464   0.00138  -0.00046   0.00720   0.00674   3.10138
    D1        3.05687  -0.00061  -0.00141  -0.01902  -0.02042   3.03645
         Item               Value     Threshold  Converged?
 Maximum Force            0.145325     0.000450     NO 
 RMS     Force            0.051801     0.000300     NO 
 Maximum Displacement     0.222800     0.001800     NO 
 RMS     Displacement     0.134459     0.001200     NO 
 Predicted change in Energy=-1.838107D-02
 GradGradGradGradGradGradGradGradGradGradGradGradGradGradGradGradGradGrad

                          Input orientation:                          
 ---------------------------------------------------------------------
 Center     Atomic      Atomic             Coordinates (Angstroms)
 Number     Number       Type             X           Y           Z
 ---------------------------------------------------------------------
      1          6           0       -5.745046    3.373193   -0.011657
      2          8           0       -4.531702    3.160825    0.007445
      3          8           0       -6.405320    2.202653    0.024939
      4          1           0       -5.891671    1.057148    0.028746
      5          1           0       -7.378971    2.193117   -0.049474
 ---------------------------------------------------------------------
                    Distance matrix (angstroms):
                    1          2          3          4          5
     1  C    0.000000
     2  O    1.231936   0.000000
     3  O    1.344420   2.104481   0.000000
     4  H    2.321034   2.505080   1.255401   0.000000
     5  H    2.015868   3.007763   0.976537   1.873127   0.000000
 Stoichiometry    CH2O2
 Framework group  C1[X(CH2O2)]
 Deg. of freedom     9
 Full point group                 C1      NOp   1
 Largest Abelian subgroup         C1      NOp   1
 Largest concise Abelian subgroup C1      NOp   1
                         Standard orientation:                         
 ---------------------------------------------------------------------
 Center     Atomic      Atomic             Coordinates (Angstroms)
 Number     Number       Type             X           Y           Z
 ---------------------------------------------------------------------
      1          6           0       -0.219239    0.576569    0.000988
      2          8           0       -1.148197   -0.232567    0.002314
      3          8           0        0.951056   -0.085023   -0.012056
      4          1           0        1.103277   -1.330716    0.021220
      5          1           0        1.789284    0.412019    0.050786
 ---------------------------------------------------------------------
 Rotational constants (GHZ):          73.3030764          12.5003116          10.6814560
 Standard basis: Aug-CC-pVDZ (5D, 7F)
 There are    93 symmetry adapted cartesian basis functions of A   symmetry.
 There are    87 symmetry adapted basis functions of A   symmetry.
    87 basis functions,   151 primitive gaussians,    93 cartesian basis functions
    12 alpha electrons       12 beta electrons
       nuclear repulsion energy        69.6348274315 Hartrees.
 NAtoms=    5 NActive=    5 NUniq=    5 SFac= 1.00D+00 NAtFMM=   60 NAOKFM=F Big=F
 Integral buffers will be    131072 words long.
 Raffenetti 2 integral format.
 Two-electron integral symmetry is turned on.
 One-electron integrals computed using PRISM.
 NBasis=    87 RedAO= T EigKep=  7.86D-04  NBF=    87
 NBsUse=    87 1.00D-06 EigRej= -1.00D+00 NBFU=    87
 Initial guess from the checkpoint file:  "C:\Calculation\20230510.2\(CO1)1(H2O)1.chk"
 B after Tr=     0.000000    0.000000    0.000000
         Rot=    0.999998    0.001277   -0.000075   -0.001452 Ang=   0.22 deg.
 ExpMin= 2.97D-02 ExpMax= 1.17D+04 ExpMxC= 4.01D+02 IAcc=3 IRadAn=         5 AccDes= 0.00D+00
 Harris functional with IExCor=  402 and IRadAn=       5 diagonalized for initial guess.
 HarFok:  IExCor=  402 AccDes= 0.00D+00 IRadAn=         5 IDoV= 1 UseB2=F ITyADJ=14
 ICtDFT=  3500011 ScaDFX=  1.000000  1.000000  1.000000  1.000000
 FoFCou: FMM=F IPFlag=           0 FMFlag=      100000 FMFlg1=           0
         NFxFlg=           0 DoJE=T BraDBF=F KetDBF=T FulRan=T
         wScrn=  0.000000 ICntrl=       500 IOpCl=  0 I1Cent=   200000004 NGrid=           0
         NMat0=    1 NMatS0=      1 NMatT0=    0 NMatD0=    1 NMtDS0=    0 NMtDT0=    0
 Petite list used in FoFCou.
 Keep R1 ints in memory in canonical form, NReq=8247801.
 Requested convergence on RMS density matrix=1.00D-08 within 128 cycles.
 Requested convergence on MAX density matrix=1.00D-06.
 Requested convergence on             energy=1.00D-06.
 No special actions if energy rises.
 SCF Done:  E(RB3LYP) =  -189.644753316     A.U. after   11 cycles
            NFock= 11  Conv=0.70D-08     -V/T= 2.0057
 Calling FoFJK, ICntrl=      2127 FMM=F ISym2X=0 I1Cent= 0 IOpClX= 0 NMat=1 NMatS=1 NMatT=0.
 ***** Axes restored to original set *****
 -------------------------------------------------------------------
 Center     Atomic                   Forces (Hartrees/Bohr)
 Number     Number              X              Y              Z
 -------------------------------------------------------------------
      1        6           0.092918155    0.053528917   -0.001316442
      2        8          -0.038816358    0.017966648   -0.000912060
      3        8          -0.036189781   -0.126199222    0.002130041
      4        1          -0.016135071    0.049975236    0.000016050
      5        1          -0.001776945    0.004728421    0.000082411
 -------------------------------------------------------------------
 Cartesian Forces:  Max     0.126199222 RMS     0.047155821

 GradGradGradGradGradGradGradGradGradGradGradGradGradGradGradGradGradGrad
 Berny optimization.
 Using GEDIIS/GDIIS optimizer.
 FormGI is forming the generalized inverse of G from B-inverse, IUseBI=4.
 Internal  Forces:  Max     0.088881854 RMS     0.036179666
 Search for a local minimum.
 Step number   5 out of a maximum of   20
 All quantities printed in internal units (Hartrees-Bohrs-Radians)
 Mixed Optimization -- RFO/linear search
 Update second derivatives using D2CorX and points    4    5
 DE= -2.80D-02 DEPred=-1.84D-02 R= 1.52D+00
 TightC=F SS=  1.41D+00  RLast= 4.47D-01 DXNew= 8.4853D-01 1.3417D+00
 Trust test= 1.52D+00 RLast= 4.47D-01 DXMaxT set to 8.49D-01
 The second derivative matrix:
                          R1        R2        R3        R4        A1
           R1           2.13368
           R2          -0.81840   1.34320
           R3          -0.26391  -0.28227   0.43168
           R4          -0.01048   0.01302  -0.02467   0.55905
           A1           0.00349   0.01669   0.00530  -0.00198   0.16101
           A2          -0.01755  -0.00481  -0.01525  -0.00004  -0.00109
           A3           0.01345  -0.01183   0.00953   0.00196   0.00007
           A4           0.06446   0.00534   0.01570   0.01628  -0.00790
           A5          -0.00069  -0.00334   0.00070  -0.00023   0.00005
           D1           0.00120   0.00169  -0.00017   0.00034  -0.00009
                          A2        A3        A4        A5        D1
           A2           0.15991
           A3           0.00115   0.15882
           A4           0.01205  -0.00391   0.11789
           A5           0.00005  -0.00010  -0.00023   0.07300
           D1           0.00008   0.00001   0.00036  -0.00002   0.01559
 ITU=  1  0  0  1  0
 Use linear search instead of GDIIS.
     Eigenvalues ---    0.01610   0.07298   0.09446   0.15820   0.16330
     Eigenvalues ---    0.21881   0.55976   1.05960   2.65115
 RFO step:  Lambda=-1.57573958D-02 EMin= 1.61034970D-02
 Quartic linear search produced a step of  0.07573.
 Iteration  1 RMS(Cart)=  0.10734639 RMS(Int)=  0.01257280
 Iteration  2 RMS(Cart)=  0.01306937 RMS(Int)=  0.00013815
 Iteration  3 RMS(Cart)=  0.00019252 RMS(Int)=  0.00001589
 Iteration  4 RMS(Cart)=  0.00000002 RMS(Int)=  0.00001589
 Variable       Old X    -DE/DX   Delta X   Delta X   Delta X     New X
                                 (Linear)    (Quad)   (Total)
    R1        2.32802  -0.04134  -0.01336  -0.02304  -0.03640   2.29162
    R2        2.54059   0.08888  -0.01712   0.03360   0.01647   2.55706
    R3        2.37236  -0.05220  -0.02295  -0.11135  -0.13430   2.23806
    R4        1.84539   0.00172  -0.00425  -0.00567  -0.00992   1.83547
    A1        2.20631  -0.00615   0.00537  -0.02911  -0.02377   2.18254
    A2        2.08990  -0.00127  -0.00819  -0.02576  -0.03398   2.05592
    A3        1.98151   0.00749   0.00265   0.05618   0.05880   2.04031
    A4        1.91086   0.02563   0.00499   0.22105   0.22604   2.13690
    A5        3.10138   0.00023   0.00051   0.00361   0.00412   3.10550
    D1        3.03645   0.00027  -0.00155   0.01093   0.00939   3.04584
         Item               Value     Threshold  Converged?
 Maximum Force            0.088882     0.000450     NO 
 RMS     Force            0.036180     0.000300     NO 
 Maximum Displacement     0.252449     0.001800     NO 
 RMS     Displacement     0.116786     0.001200     NO 
 Predicted change in Energy=-8.981970D-03
 GradGradGradGradGradGradGradGradGradGradGradGradGradGradGradGradGradGrad

                          Input orientation:                          
 ---------------------------------------------------------------------
 Center     Atomic      Atomic             Coordinates (Angstroms)
 Number     Number       Type             X           Y           Z
 ---------------------------------------------------------------------
      1          6           0       -5.699887    3.287676   -0.010795
      2          8           0       -4.487357    3.294416    0.006710
      3          8           0       -6.419458    2.142204    0.022315
      4          1           0       -5.960312    1.050522    0.029470
      5          1           0       -7.385695    2.212119   -0.047700
 ---------------------------------------------------------------------
                    Distance matrix (angstroms):
                    1          2          3          4          5
     1  C    0.000000
     2  O    1.212676   0.000000
     3  O    1.353138   2.249634   0.000000
     4  H    2.252621   2.684246   1.184330   0.000000
     5  H    2.000033   3.094300   0.971290   1.840375   0.000000
 Stoichiometry    CH2O2
 Framework group  C1[X(CH2O2)]
 Deg. of freedom     9
 Full point group                 C1      NOp   1
 Largest Abelian subgroup         C1      NOp   1
 Largest concise Abelian subgroup C1      NOp   1
                         Standard orientation:                         
 ---------------------------------------------------------------------
 Center     Atomic      Atomic             Coordinates (Angstroms)
 Number     Number       Type             X           Y           Z
 ---------------------------------------------------------------------
      1          6           0       -0.217816    0.477167    0.000513
      2          8           0       -1.230527   -0.189914    0.001867
      3          8           0        1.016274   -0.077709   -0.010284
      4          1           0        1.239564   -1.240357    0.021797
      5          1           0        1.781353    0.518340    0.042463
 ---------------------------------------------------------------------
 Rotational constants (GHZ):          97.0202395          11.0165596           9.8946307
 Standard basis: Aug-CC-pVDZ (5D, 7F)
 There are    93 symmetry adapted cartesian basis functions of A   symmetry.
 There are    87 symmetry adapted basis functions of A   symmetry.
    87 basis functions,   151 primitive gaussians,    93 cartesian basis functions
    12 alpha electrons       12 beta electrons
       nuclear repulsion energy        68.9348804618 Hartrees.
 NAtoms=    5 NActive=    5 NUniq=    5 SFac= 1.00D+00 NAtFMM=   60 NAOKFM=F Big=F
 Integral buffers will be    131072 words long.
 Raffenetti 2 integral format.
 Two-electron integral symmetry is turned on.
 One-electron integrals computed using PRISM.
 NBasis=    87 RedAO= T EigKep=  7.28D-04  NBF=    87
 NBsUse=    87 1.00D-06 EigRej= -1.00D+00 NBFU=    87
 Initial guess from the checkpoint file:  "C:\Calculation\20230510.2\(CO1)1(H2O)1.chk"
 B after Tr=     0.000000    0.000000    0.000000
         Rot=    0.999995    0.001660    0.000195   -0.002796 Ang=   0.37 deg.
 ExpMin= 2.97D-02 ExpMax= 1.17D+04 ExpMxC= 4.01D+02 IAcc=3 IRadAn=         5 AccDes= 0.00D+00
 Harris functional with IExCor=  402 and IRadAn=       5 diagonalized for initial guess.
 HarFok:  IExCor=  402 AccDes= 0.00D+00 IRadAn=         5 IDoV= 1 UseB2=F ITyADJ=14
 ICtDFT=  3500011 ScaDFX=  1.000000  1.000000  1.000000  1.000000
 FoFCou: FMM=F IPFlag=           0 FMFlag=      100000 FMFlg1=           0
         NFxFlg=           0 DoJE=T BraDBF=F KetDBF=T FulRan=T
         wScrn=  0.000000 ICntrl=       500 IOpCl=  0 I1Cent=   200000004 NGrid=           0
         NMat0=    1 NMatS0=      1 NMatT0=    0 NMatD0=    1 NMtDS0=    0 NMtDT0=    0
 Petite list used in FoFCou.
 Keep R1 ints in memory in canonical form, NReq=8247801.
 Requested convergence on RMS density matrix=1.00D-08 within 128 cycles.
 Requested convergence on MAX density matrix=1.00D-06.
 Requested convergence on             energy=1.00D-06.
 No special actions if energy rises.
 SCF Done:  E(RB3LYP) =  -189.649081006     A.U. after   11 cycles
            NFock= 11  Conv=0.59D-08     -V/T= 2.0056
 Calling FoFJK, ICntrl=      2127 FMM=F ISym2X=0 I1Cent= 0 IOpClX= 0 NMat=1 NMatS=1 NMatT=0.
 ***** Axes restored to original set *****
 -------------------------------------------------------------------
 Center     Atomic                   Forces (Hartrees/Bohr)
 Number     Number              X              Y              Z
 -------------------------------------------------------------------
      1        6           0.054529851    0.108285076   -0.002993053
      2        8          -0.039413537   -0.026903443    0.000257089
      3        8           0.006990650   -0.115427711    0.003351089
      4        1          -0.017446441    0.029976798    0.000051585
      5        1          -0.004660524    0.004069280   -0.000666711
 -------------------------------------------------------------------
 Cartesian Forces:  Max     0.115427711 RMS     0.045906265

 GradGradGradGradGradGradGradGradGradGradGradGradGradGradGradGradGradGrad
 Berny optimization.
 Using GEDIIS/GDIIS optimizer.
 FormGI is forming the generalized inverse of G from B-inverse, IUseBI=4.
 Internal  Forces:  Max     0.076993052 RMS     0.035476954
 Search for a local minimum.
 Step number   6 out of a maximum of   20
 All quantities printed in internal units (Hartrees-Bohrs-Radians)
 Mixed Optimization -- RFO/linear search
 Update second derivatives using D2CorX and points    3    5    6
 DE= -4.33D-03 DEPred=-8.98D-03 R= 4.82D-01
 Trust test= 4.82D-01 RLast= 2.76D-01 DXMaxT set to 8.49D-01
 The second derivative matrix:
                          R1        R2        R3        R4        A1
           R1           1.99990
           R2          -0.38187   0.53487
           R3          -0.42056   0.15055   0.26110
           R4          -0.01963   0.02519  -0.02688   0.55658
           A1          -0.00835   0.00133   0.00160   0.00445   0.16833
           A2          -0.03325   0.04947  -0.03341  -0.00527  -0.00254
           A3           0.04159  -0.05012   0.03203   0.00052  -0.00574
           A4           0.07444   0.06332  -0.01675  -0.01143  -0.04813
           A5          -0.00030  -0.00204   0.00040  -0.00048  -0.00056
           D1           0.00182   0.00025   0.00039   0.00028  -0.00018
                          A2        A3        A4        A5        D1
           A2           0.15638
           A3           0.00600   0.15985
           A4           0.02200   0.02592   0.37234
           A5           0.00026   0.00031   0.00290   0.07304
           D1           0.00017   0.00000   0.00111  -0.00001   0.01559
 ITU=  0  1  0  0  1  0
 Use linear search instead of GDIIS.
     Eigenvalues ---    0.01599   0.07282   0.07734   0.15509   0.21412
     Eigenvalues ---    0.33876   0.50360   0.56135   2.19934
 RFO step:  Lambda=-4.11401586D-02 EMin= 1.59891892D-02
 Quartic linear search produced a step of -0.31886.
 Iteration  1 RMS(Cart)=  0.09355290 RMS(Int)=  0.04108855
 Iteration  2 RMS(Cart)=  0.03312246 RMS(Int)=  0.00014852
 Iteration  3 RMS(Cart)=  0.00016477 RMS(Int)=  0.00002099
 Iteration  4 RMS(Cart)=  0.00000002 RMS(Int)=  0.00002099
 Variable       Old X    -DE/DX   Delta X   Delta X   Delta X     New X
                                 (Linear)    (Quad)   (Total)
    R1        2.29162  -0.03955   0.01161  -0.04917  -0.03756   2.25406
    R2        2.55706   0.07699  -0.00525   0.24355   0.23830   2.79536
    R3        2.23806  -0.03439   0.04282  -0.36033  -0.31751   1.92055
    R4        1.83547   0.00498   0.00316  -0.02525  -0.02209   1.81338
    A1        2.18254   0.00892   0.00758  -0.00702   0.00060   2.18313
    A2        2.05592  -0.00791   0.01083  -0.14804  -0.13717   1.91875
    A3        2.04031  -0.00106  -0.01875   0.15561   0.13690   2.17721
    A4        2.13690  -0.06118  -0.07207  -0.13295  -0.20502   1.93187
    A5        3.10550  -0.00068  -0.00132   0.00483   0.00352   3.10902
    D1        3.04584  -0.00001  -0.00299   0.00563   0.00264   3.04847
         Item               Value     Threshold  Converged?
 Maximum Force            0.076993     0.000450     NO 
 RMS     Force            0.035477     0.000300     NO 
 Maximum Displacement     0.195231     0.001800     NO 
 RMS     Displacement     0.109072     0.001200     NO 
 Predicted change in Energy=-2.715001D-02
 GradGradGradGradGradGradGradGradGradGradGradGradGradGradGradGradGradGrad

                          Input orientation:                          
 ---------------------------------------------------------------------
 Center     Atomic      Atomic             Coordinates (Angstroms)
 Number     Number       Type             X           Y           Z
 ---------------------------------------------------------------------
      1          6           0       -5.707028    3.364306   -0.011934
      2          8           0       -4.524986    3.205658    0.007375
      3          8           0       -6.409312    2.062856    0.022352
      4          1           0       -5.954857    1.153834    0.028619
      5          1           0       -7.356526    2.200282   -0.046412
 ---------------------------------------------------------------------
                    Distance matrix (angstroms):
                    1          2          3          4          5
     1  C    0.000000
     2  O    1.192797   0.000000
     3  O    1.479240   2.203839   0.000000
     4  H    2.224691   2.500993   1.016312   0.000000
     5  H    2.019154   3.005211   0.959599   1.750817   0.000000
 Stoichiometry    CH2O2
 Framework group  C1[X(CH2O2)]
 Deg. of freedom     9
 Full point group                 C1      NOp   1
 Largest Abelian subgroup         C1      NOp   1
 Largest concise Abelian subgroup C1      NOp   1
                         Standard orientation:                         
 ---------------------------------------------------------------------
 Center     Atomic      Atomic             Coordinates (Angstroms)
 Number     Number       Type             X           Y           Z
 ---------------------------------------------------------------------
      1          6           0       -0.289917    0.562426   -0.001414
      2          8           0       -1.172443   -0.240007    0.002422
      3          8           0        1.027540   -0.110183   -0.008809
      4          1           0        1.170034   -1.116085    0.018502
      5          1           0        1.728697    0.543055    0.041079
 ---------------------------------------------------------------------
 Rotational constants (GHZ):          78.2823356          11.4590727           9.9970991
 Standard basis: Aug-CC-pVDZ (5D, 7F)
 There are    93 symmetry adapted cartesian basis functions of A   symmetry.
 There are    87 symmetry adapted basis functions of A   symmetry.
    87 basis functions,   151 primitive gaussians,    93 cartesian basis functions
    12 alpha electrons       12 beta electrons
       nuclear repulsion energy        68.8140855623 Hartrees.
 NAtoms=    5 NActive=    5 NUniq=    5 SFac= 1.00D+00 NAtFMM=   60 NAOKFM=F Big=F
 Integral buffers will be    131072 words long.
 Raffenetti 2 integral format.
 Two-electron integral symmetry is turned on.
 One-electron integrals computed using PRISM.
 NBasis=    87 RedAO= T EigKep=  8.01D-04  NBF=    87
 NBsUse=    87 1.00D-06 EigRej= -1.00D+00 NBFU=    87
 Initial guess from the checkpoint file:  "C:\Calculation\20230510.2\(CO1)1(H2O)1.chk"
 B after Tr=     0.000000    0.000000    0.000000
         Rot=    0.999951    0.001329    0.000133   -0.009792 Ang=   1.13 deg.
 ExpMin= 2.97D-02 ExpMax= 1.17D+04 ExpMxC= 4.01D+02 IAcc=3 IRadAn=         5 AccDes= 0.00D+00
 Harris functional with IExCor=  402 and IRadAn=       5 diagonalized for initial guess.
 HarFok:  IExCor=  402 AccDes= 0.00D+00 IRadAn=         5 IDoV= 1 UseB2=F ITyADJ=14
 ICtDFT=  3500011 ScaDFX=  1.000000  1.000000  1.000000  1.000000
 FoFCou: FMM=F IPFlag=           0 FMFlag=      100000 FMFlg1=           0
         NFxFlg=           0 DoJE=T BraDBF=F KetDBF=T FulRan=T
         wScrn=  0.000000 ICntrl=       500 IOpCl=  0 I1Cent=   200000004 NGrid=           0
         NMat0=    1 NMatS0=      1 NMatT0=    0 NMatD0=    1 NMtDS0=    0 NMtDT0=    0
 Petite list used in FoFCou.
 Keep R1 ints in memory in canonical form, NReq=8247801.
 Requested convergence on RMS density matrix=1.00D-08 within 128 cycles.
 Requested convergence on MAX density matrix=1.00D-06.
 Requested convergence on             energy=1.00D-06.
 No special actions if energy rises.
 SCF Done:  E(RB3LYP) =  -189.685758258     A.U. after   12 cycles
            NFock= 12  Conv=0.13D-08     -V/T= 2.0047
 Calling FoFJK, ICntrl=      2127 FMM=F ISym2X=0 I1Cent= 0 IOpClX= 0 NMat=1 NMatS=1 NMatT=0.
 ***** Axes restored to original set *****
 -------------------------------------------------------------------
 Center     Atomic                   Forces (Hartrees/Bohr)
 Number     Number              X              Y              Z
 -------------------------------------------------------------------
      1        6           0.043504163    0.076067097   -0.001992444
      2        8          -0.008168379   -0.005044883    0.000203609
      3        8          -0.004722335   -0.067984338    0.003799050
      4        1          -0.014775294    0.008381046   -0.000899838
      5        1          -0.015838156   -0.011418921   -0.001110378
 -------------------------------------------------------------------
 Cartesian Forces:  Max     0.076067097 RMS     0.029558345

 GradGradGradGradGradGradGradGradGradGradGradGradGradGradGradGradGradGrad
 Berny optimization.
 Using GEDIIS/GDIIS optimizer.
 FormGI is forming the generalized inverse of G from B-inverse, IUseBI=4.
 Internal  Forces:  Max     0.079302799 RMS     0.026938711
 Search for a local minimum.
 Step number   7 out of a maximum of   20
 All quantities printed in internal units (Hartrees-Bohrs-Radians)
 Mixed Optimization -- RFO/linear search
 Update second derivatives using D2CorX and points    5    6    7
 DE= -3.67D-02 DEPred=-2.72D-02 R= 1.35D+00
 TightC=F SS=  1.41D+00  RLast= 4.89D-01 DXNew= 1.4270D+00 1.4670D+00
 Trust test= 1.35D+00 RLast= 4.89D-01 DXMaxT set to 1.43D+00
 The second derivative matrix:
                          R1        R2        R3        R4        A1
           R1           2.01795
           R2          -0.28759   0.36173
           R3          -0.39522   0.22281   0.29048
           R4           0.00997   0.01721  -0.00024   0.56534
           A1           0.00021   0.00082   0.00884   0.00722   0.16869
           A2           0.00173   0.04558  -0.00097   0.00657   0.00153
           A3          -0.00166  -0.04643  -0.00744  -0.01416  -0.01019
           A4           0.06145   0.07598  -0.02382  -0.01181  -0.04527
           A5          -0.00153  -0.00122  -0.00063  -0.00072  -0.00060
           D1           0.00103   0.00063  -0.00029   0.00009  -0.00023
                          A2        A3        A4        A5        D1
           A2           0.17181
           A3          -0.01356   0.18393
           A4           0.01845   0.02665   0.35200
           A5          -0.00010   0.00072   0.00268   0.07305
           D1          -0.00009   0.00033   0.00106   0.00000   0.01559
 ITU=  1  0  1  0  0  1  0
 Use linear search instead of GDIIS.
     Eigenvalues ---    0.01596   0.06638   0.07306   0.15467   0.19002
     Eigenvalues ---    0.34058   0.46560   0.56883   2.16583
 RFO step:  Lambda=-1.84097019D-02 EMin= 1.59582722D-02
 Quartic linear search produced a step of  0.40352.
 Iteration  1 RMS(Cart)=  0.07938053 RMS(Int)=  0.04097311
 Iteration  2 RMS(Cart)=  0.04053105 RMS(Int)=  0.00015421
 Iteration  3 RMS(Cart)=  0.00015181 RMS(Int)=  0.00000799
 Iteration  4 RMS(Cart)=  0.00000002 RMS(Int)=  0.00000799
 Variable       Old X    -DE/DX   Delta X   Delta X   Delta X     New X
                                 (Linear)    (Quad)   (Total)
    R1        2.25406  -0.00742  -0.01516   0.01553   0.00037   2.25443
    R2        2.79536   0.07930   0.09616   0.22895   0.32510   3.12046
    R3        1.92055  -0.01411  -0.12812  -0.10584  -0.23396   1.68659
    R4        1.81338   0.01408  -0.00891   0.02260   0.01369   1.82707
    A1        2.18313   0.00393   0.00024   0.00638   0.00660   2.18973
    A2        1.91875   0.01034  -0.05535   0.07367   0.01830   1.93705
    A3        2.17721  -0.01431   0.05524  -0.08131  -0.02608   2.15113
    A4        1.93187  -0.01373  -0.08273  -0.00518  -0.08791   1.84396
    A5        3.10902  -0.00048   0.00142  -0.00302  -0.00160   3.10742
    D1        3.04847  -0.00010   0.00106  -0.01278  -0.01172   3.03676
         Item               Value     Threshold  Converged?
 Maximum Force            0.079303     0.000450     NO 
 RMS     Force            0.026939     0.000300     NO 
 Maximum Displacement     0.181856     0.001800     NO 
 RMS     Displacement     0.108667     0.001200     NO 
 Predicted change in Energy=-2.132934D-02
 GradGradGradGradGradGradGradGradGradGradGradGradGradGradGradGradGradGrad

                          Input orientation:                          
 ---------------------------------------------------------------------
 Center     Atomic      Atomic             Coordinates (Angstroms)
 Number     Number       Type             X           Y           Z
 ---------------------------------------------------------------------
      1          6           0       -5.649486    3.460540   -0.009593
      2          8           0       -4.483520    3.208483    0.005415
      3          8           0       -6.420966    2.001009    0.026493
      4          1           0       -6.020409    1.203438    0.025997
      5          1           0       -7.378329    2.113467   -0.048312
 ---------------------------------------------------------------------
                    Distance matrix (angstroms):
                    1          2          3          4          5
     1  C    0.000000
     2  O    1.192994   0.000000
     3  O    1.651277   2.283010   0.000000
     4  H    2.287654   2.526392   0.892505   0.000000
     5  H    2.192031   3.095458   0.966843   1.636344   0.000000
 Stoichiometry    CH2O2
 Framework group  C1[X(CH2O2)]
 Deg. of freedom     9
 Full point group                 C1      NOp   1
 Largest Abelian subgroup         C1      NOp   1
 Largest concise Abelian subgroup C1      NOp   1
                         Standard orientation:                         
 ---------------------------------------------------------------------
 Center     Atomic      Atomic             Coordinates (Angstroms)
 Number     Number       Type             X           Y           Z
 ---------------------------------------------------------------------
      1          6           0       -0.390131    0.607803   -0.002978
      2          8           0       -1.182201   -0.284284    0.003532
      3          8           0        1.094492   -0.115083   -0.009697
      4          1           0        1.242160   -0.994875    0.017244
      5          1           0        1.800302    0.542990    0.049945
 ---------------------------------------------------------------------
 Rotational constants (GHZ):          69.8991789          10.5350046           9.1565718
 Standard basis: Aug-CC-pVDZ (5D, 7F)
 There are    93 symmetry adapted cartesian basis functions of A   symmetry.
 There are    87 symmetry adapted basis functions of A   symmetry.
    87 basis functions,   151 primitive gaussians,    93 cartesian basis functions
    12 alpha electrons       12 beta electrons
       nuclear repulsion energy        66.8331977726 Hartrees.
 NAtoms=    5 NActive=    5 NUniq=    5 SFac= 1.00D+00 NAtFMM=   60 NAOKFM=F Big=F
 Integral buffers will be    131072 words long.
 Raffenetti 2 integral format.
 Two-electron integral symmetry is turned on.
 One-electron integrals computed using PRISM.
 NBasis=    87 RedAO= T EigKep=  9.98D-04  NBF=    87
 NBsUse=    87 1.00D-06 EigRej= -1.00D+00 NBFU=    87
 Initial guess from the checkpoint file:  "C:\Calculation\20230510.2\(CO1)1(H2O)1.chk"
 B after Tr=     0.000000    0.000000    0.000000
         Rot=    0.999894    0.000214   -0.000027   -0.014568 Ang=   1.67 deg.
 ExpMin= 2.97D-02 ExpMax= 1.17D+04 ExpMxC= 4.01D+02 IAcc=3 IRadAn=         5 AccDes= 0.00D+00
 Harris functional with IExCor=  402 and IRadAn=       5 diagonalized for initial guess.
 HarFok:  IExCor=  402 AccDes= 0.00D+00 IRadAn=         5 IDoV= 1 UseB2=F ITyADJ=14
 ICtDFT=  3500011 ScaDFX=  1.000000  1.000000  1.000000  1.000000
 FoFCou: FMM=F IPFlag=           0 FMFlag=      100000 FMFlg1=           0
         NFxFlg=           0 DoJE=T BraDBF=F KetDBF=T FulRan=T
         wScrn=  0.000000 ICntrl=       500 IOpCl=  0 I1Cent=   200000004 NGrid=           0
         NMat0=    1 NMatS0=      1 NMatT0=    0 NMatD0=    1 NMtDS0=    0 NMtDT0=    0
 Petite list used in FoFCou.
 Keep R1 ints in memory in canonical form, NReq=8247801.
 Requested convergence on RMS density matrix=1.00D-08 within 128 cycles.
 Requested convergence on MAX density matrix=1.00D-06.
 Requested convergence on             energy=1.00D-06.
 No special actions if energy rises.
 SCF Done:  E(RB3LYP) =  -189.703367294     A.U. after   11 cycles
            NFock= 11  Conv=0.22D-08     -V/T= 2.0042
 Calling FoFJK, ICntrl=      2127 FMM=F ISym2X=0 I1Cent= 0 IOpClX= 0 NMat=1 NMatS=1 NMatT=0.
 ***** Axes restored to original set *****
 -------------------------------------------------------------------
 Center     Atomic                   Forces (Hartrees/Bohr)
 Number     Number              X              Y              Z
 -------------------------------------------------------------------
      1        6           0.070066046    0.050874948   -0.001183529
      2        8          -0.034535040    0.009436384   -0.000251860
      3        8          -0.071033913    0.051866177    0.003037195
      4        1           0.035419962   -0.097651777   -0.001441076
      5        1           0.000082945   -0.014525732   -0.000160730
 -------------------------------------------------------------------
 Cartesian Forces:  Max     0.097651777 RMS     0.042840309

 GradGradGradGradGradGradGradGradGradGradGradGradGradGradGradGradGradGrad
 Berny optimization.
 Using GEDIIS/GDIIS optimizer.
 FormGI is forming the generalized inverse of G from B-inverse, IUseBI=4.
 Internal  Forces:  Max     0.103161571 RMS     0.041495656
 Search for a local minimum.
 Step number   8 out of a maximum of   20
 All quantities printed in internal units (Hartrees-Bohrs-Radians)
 Mixed Optimization -- RFO/linear search
 Update second derivatives using D2CorX and points    7    8
 DE= -1.76D-02 DEPred=-2.13D-02 R= 8.26D-01
 TightC=F SS=  1.41D+00  RLast= 4.12D-01 DXNew= 2.4000D+00 1.2353D+00
 Trust test= 8.26D-01 RLast= 4.12D-01 DXMaxT set to 1.43D+00
 The second derivative matrix:
                          R1        R2        R3        R4        A1
           R1           2.04130
           R2          -0.26222   0.17366
           R3          -0.49638   0.16792   0.71470
           R4           0.02810  -0.02504  -0.06296   0.56161
           A1           0.00037  -0.01101   0.01121   0.00389   0.16802
           A2           0.00620  -0.00780  -0.00551  -0.00669  -0.00168
           A3          -0.00635   0.01972  -0.00530   0.00267  -0.00625
           A4           0.04516   0.07538   0.04239  -0.01955  -0.04443
           A5          -0.00169   0.00078  -0.00050  -0.00021  -0.00048
           D1           0.00120   0.00072  -0.00100   0.00020  -0.00024
                          A2        A3        A4        A5        D1
           A2           0.15693
           A3           0.00478   0.16133
           A4           0.01995   0.02428   0.36201
           A5           0.00046   0.00003   0.00262   0.07302
           D1          -0.00009   0.00032   0.00095   0.00000   0.01560
 ITU=  1  1  0  1  0  0  1  0
 Use linear search instead of GDIIS.
     Eigenvalues ---    0.01607   0.07299   0.09342   0.15467   0.15959
     Eigenvalues ---    0.37507   0.51429   0.63045   2.25210
 RFO step:  Lambda=-3.59934674D-02 EMin= 1.60698655D-02
 Quartic linear search produced a step of -0.02394.
 Iteration  1 RMS(Cart)=  0.08804778 RMS(Int)=  0.05296543
 Iteration  2 RMS(Cart)=  0.05542313 RMS(Int)=  0.00023165
 Iteration  3 RMS(Cart)=  0.00026844 RMS(Int)=  0.00000329
 Iteration  4 RMS(Cart)=  0.00000004 RMS(Int)=  0.00000329
 Variable       Old X    -DE/DX   Delta X   Delta X   Delta X     New X
                                 (Linear)    (Quad)   (Total)
    R1        2.25443  -0.03575  -0.00001   0.05241   0.05240   2.30683
    R2        3.12046   0.06994  -0.00778   0.37484   0.36706   3.48752
    R3        1.68659   0.10316   0.00560   0.08893   0.09453   1.78112
    R4        1.82707  -0.00176  -0.00033   0.01928   0.01895   1.84602
    A1        2.18973   0.00492  -0.00016   0.02129   0.02113   2.21086
    A2        1.93705   0.01069  -0.00044   0.08293   0.08248   2.01953
    A3        2.15113  -0.01569   0.00062  -0.10539  -0.10478   2.04635
    A4        1.84396   0.00434   0.00210  -0.07148  -0.06938   1.77458
    A5        3.10742  -0.00051   0.00004  -0.00465  -0.00461   3.10281
    D1        3.03676  -0.00029   0.00028  -0.00894  -0.00866   3.02810
         Item               Value     Threshold  Converged?
 Maximum Force            0.103162     0.000450     NO 
 RMS     Force            0.041496     0.000300     NO 
 Maximum Displacement     0.267281     0.001800     NO 
[...]
 XXXX=           -234.4190 YYYY=            -44.8090 ZZZZ=            -17.6473 XXXY=              6.2009
 XXXZ=             -1.2351 YYYX=              6.3572 YYYZ=             -0.3521 ZZZX=              0.0168
 ZZZY=             -0.1749 XXYY=            -48.0275 XXZZ=            -57.9734 YYZZ=            -10.1537
 XXYZ=             -1.2328 YYXZ=              0.0833 ZZXY=              1.6231
 N-N= 5.269044720569D+01 E-N=-5.520011696075D+02  KE= 1.886402439348D+02
  Exact polarizability:      22.859       0.550      24.839      -0.018      -0.016      20.187
 Approx polarizability:      28.042       1.981      37.661      -0.042      -0.036      25.578
 Calling FoFJK, ICntrl=    100127 FMM=F ISym2X=0 I1Cent= 0 IOpClX= 0 NMat=1 NMatS=1 NMatT=0.
 Full mass-weighted force constant matrix:
 Low frequencies ---  -38.2268   -3.8052   -0.0002    0.0008    0.0008    3.2836
 Low frequencies ---    5.6177   50.2017   63.6279
 ******    1 imaginary frequencies (negative Signs) ****** 
 Diagonal vibrational polarizability:
       42.5547107     905.6794367    1463.3939219
 Harmonic frequencies (cm**-1), IR intensities (KM/Mole), Raman scattering
 activities (A**4/AMU), depolarization ratios for plane and unpolarized
 incident light, reduced masses (AMU), force constants (mDyne/A),
 and normal coordinates:
                      1                      2                      3
                      A                      A                      A
 Frequencies --    -38.1649                50.2009                63.5639
 Red. masses --      1.5007                 7.4306                 1.1831
 Frc consts  --      0.0013                 0.0110                 0.0028
 IR Inten    --     47.6489                 0.6721               184.4818
  Atom  AN      X      Y      Z        X      Y      Z        X      Y      Z
     1   6     0.14  -0.04   0.00    -0.36   0.01   0.01    -0.01   0.00   0.05
     2   8    -0.13   0.01   0.00    -0.29   0.00  -0.01     0.01   0.00  -0.02
     3   8     0.01  -0.04   0.00     0.50   0.00   0.01     0.00  -0.01  -0.09
     4   1     0.65   0.29   0.02     0.41  -0.05   0.07     0.01   0.05   0.93
     5   1    -0.46   0.50  -0.01     0.56  -0.09  -0.19     0.02   0.01   0.34
                      4                      5                      6
                      A                      A                      A
 Frequencies --     69.9046                99.0921              1616.8849
 Red. masses --      1.1319                 3.0322                 1.0831
 Frc consts  --      0.0033                 0.0175                 1.6684
 IR Inten    --     42.7257                21.4406                70.8338
  Atom  AN      X      Y      Z        X      Y      Z        X      Y      Z
     1   6    -0.01   0.00  -0.06     0.28  -0.11   0.00     0.00   0.00   0.00
     2   8    -0.01   0.00   0.05    -0.22  -0.02   0.00     0.00   0.00   0.00
     3   8     0.01   0.00  -0.04     0.02   0.13  -0.01    -0.07   0.01   0.00
     4   1     0.00  -0.02  -0.34    -0.63  -0.19   0.07     0.63   0.31  -0.04
     5   1     0.05   0.05   0.93     0.50  -0.41   0.01     0.47  -0.52   0.02
                      7                      8                      9
                      A                      A                      A
 Frequencies --   2183.7079              3793.8766              3903.2902
 Red. masses --     13.4353                 1.0450                 1.0822
 Frc consts  --     37.7475                 8.8620                 9.7144
 IR Inten    --     77.0290                 4.8574                63.1071
  Atom  AN      X      Y      Z        X      Y      Z        X      Y      Z
     1   6     0.15   0.79   0.01     0.00   0.00   0.00     0.00   0.00   0.00
     2   8    -0.11  -0.59  -0.01     0.00   0.00   0.00     0.00   0.00   0.00
     3   8     0.00   0.00   0.00     0.05  -0.01   0.00    -0.01  -0.07   0.00
     4   1     0.01   0.00   0.00    -0.28   0.65  -0.03    -0.32   0.63  -0.03
     5   1     0.00   0.00   0.00    -0.50  -0.50   0.04     0.53   0.47  -0.04

 -------------------
 - Thermochemistry -
 -------------------
 Temperature   298.150 Kelvin.  Pressure   1.00000 Atm.
 Atom     1 has atomic number  6 and mass  12.00000
 Atom     2 has atomic number  8 and mass  15.99491
 Atom     3 has atomic number  8 and mass  15.99491
 Atom     4 has atomic number  1 and mass   1.00783
 Atom     5 has atomic number  1 and mass   1.00783
 Molecular mass:    46.00548 amu.
 Principal axes and moments of inertia in atomic units:
                           1         2         3
     Eigenvalues --    34.56175 458.11289 492.62508
           X            0.99999  -0.00321  -0.00040
           Y            0.00320   0.99997  -0.00734
           Z            0.00042   0.00734   0.99997
 This molecule is an asymmetric top.
 Rotational symmetry number  1.
 Rotational temperatures (Kelvin)      2.50606     0.18907     0.17582
 Rotational constants (GHZ):          52.21787     3.93951     3.66352
    1 imaginary frequencies ignored.
 Zero-point vibrational energy      70463.2 (Joules/Mol)
                                   16.84110 (Kcal/Mol)
 Warning -- explicit consideration of   4 degrees of freedom as
           vibrations may cause significant error
 Vibrational temperatures:     72.23    91.45   100.58   142.57  2326.34
          (Kelvin)           3141.87  5458.54  5615.96
 
 Zero-point correction=                           0.026838 (Hartree/Particle)
 Thermal correction to Energy=                    0.032845
 Thermal correction to Enthalpy=                  0.033789
 Thermal correction to Gibbs Free Energy=        -0.003158
 Sum of electronic and zero-point Energies=           -189.748846
 Sum of electronic and thermal Energies=              -189.742839
 Sum of electronic and thermal Enthalpies=            -189.741894
 Sum of electronic and thermal Free Energies=         -189.778842
 
                     E (Thermal)             CV                S
                      KCal/Mol        Cal/Mol-Kelvin    Cal/Mol-Kelvin
 Total                   20.611             13.884             77.763
 Electronic               0.000              0.000              0.000
 Translational            0.889              2.981             37.404
 Rotational               0.889              2.981             23.571
 Vibrational             18.833              7.923             16.789
 Vibration     1          0.595              1.978              4.809
 Vibration     2          0.597              1.972              4.343
 Vibration     3          0.598              1.968              4.156
 Vibration     4          0.604              1.950              3.472
                       Q            Log10(Q)             Ln(Q)
 Total Bot       0.283649D+02          1.452782          3.345153
 Total V=0       0.627184D+14         13.797395         31.769675
 Vib (Bot)       0.731519D-10        -10.135775        -23.338483
 Vib (Bot)    1  0.411783D+01          0.614668          1.415326
 Vib (Bot)    2  0.324735D+01          0.511530          1.177840
 Vib (Bot)    3  0.295038D+01          0.469878          1.081935
 Vib (Bot)    4  0.207144D+01          0.316272          0.728244
 Vib (V=0)       0.161748D+03          2.208839          5.086039
 Vib (V=0)    1  0.464807D+01          0.667273          1.536453
 Vib (V=0)    2  0.378562D+01          0.578137          1.331210
 Vib (V=0)    3  0.349245D+01          0.543130          1.250603
 Vib (V=0)    4  0.263093D+01          0.420109          0.967337
 Electronic      0.100000D+01          0.000000          0.000000
 Translational   0.122650D+08          7.088668         16.322262
 Rotational      0.316146D+05          4.499888         10.361375
 ***** Axes restored to original set *****
 -------------------------------------------------------------------
 Center     Atomic                   Forces (Hartrees/Bohr)
 Number     Number              X              Y              Z
 -------------------------------------------------------------------
      1        6           0.000001216    0.000012787    0.000025254
      2        8          -0.000018966    0.000007411   -0.000027363
      3        8           0.000030760   -0.000093142    0.000013921
      4        1          -0.000025861    0.000010815    0.000013157
      5        1           0.000012851    0.000062129   -0.000024969
 -------------------------------------------------------------------
 Cartesian Forces:  Max     0.000093142 RMS     0.000034048
 FormGI is forming the generalized inverse of G from B-inverse, IUseBI=4.

 GradGradGradGradGradGradGradGradGradGradGradGradGradGradGradGradGradGrad
 Berny optimization.
 Internal  Forces:  Max     0.000087440 RMS     0.000042744
 Search for a local minimum.
 Step number   1 out of a maximum of    2
 All quantities printed in internal units (Hartrees-Bohrs-Radians)
 Second derivative matrix not updated -- analytic derivatives used.
 The second derivative matrix:
                          R1        R2        R3        R4        A1
           R1           1.23579
           R2           0.00068   0.00101
           R3           0.00009   0.00011   0.53216
           R4          -0.00013   0.00005  -0.00618   0.53243
           A1           0.00152  -0.00006  -0.00960  -0.00981   0.01757
           A2          -0.00124  -0.00006  -0.00984  -0.00962   0.01732
           A3          -0.00028   0.00013   0.01945   0.01944  -0.03489
           A4          -0.00458   0.00094  -0.00016   0.00014  -0.00120
           A5          -0.00007   0.00005  -0.00001   0.00000  -0.00001
           D1          -0.00003  -0.00004  -0.00017  -0.00017   0.00034
                          A2        A3        A4        A5        D1
           A2           0.01746
           A3          -0.03478   0.06969
           A4           0.00134  -0.00013   0.00720
           A5           0.00004  -0.00003   0.00010   0.00064
           D1           0.00024  -0.00059  -0.00001  -0.00048   0.00055
 ITU=  0
     Eigenvalues ---   -0.00028   0.00011   0.00092   0.00108   0.00774
     Eigenvalues ---    0.10185   0.52879   0.53847   1.23581
 Eigenvalue     1 is  -2.82D-04 should be greater than     0.000000 Eigenvector:
                          A1        A2        A4        R2        D1
   1                   -0.66836   0.66793  -0.24962   0.18160   0.10324
                          A5        A3        R1        R3        R4
   1                    0.03475  -0.00118   0.00047   0.00026  -0.00012
 Quadratic step=3.802D-01 exceeds max=3.000D-01 adjusted using Lamda=-6.832D-05.
 Angle between NR and scaled steps=   4.65 degrees.
 Angle between quadratic step and forces=  33.39 degrees.
 Linear search not attempted -- first point.
 Iteration  1 RMS(Cart)=  0.13326863 RMS(Int)=  0.01245823
 Iteration  2 RMS(Cart)=  0.01190529 RMS(Int)=  0.00004772
 Iteration  3 RMS(Cart)=  0.00004409 RMS(Int)=  0.00000210
 Iteration  4 RMS(Cart)=  0.00000000 RMS(Int)=  0.00000210
 Variable       Old X    -DE/DX   Delta X   Delta X   Delta X     New X
                                 (Linear)    (Quad)   (Total)
    R1        2.14363  -0.00002   0.00000  -0.00020  -0.00020   2.14342
    R2        6.21320   0.00001   0.00000  -0.02712  -0.02712   6.18607
    R3        1.82343  -0.00002   0.00000  -0.00013  -0.00013   1.82330
    R4        1.82332  -0.00002   0.00000  -0.00001  -0.00001   1.82331
    A1        2.23851   0.00006   0.00000   0.19780   0.19780   2.43630
    A2        2.21431  -0.00009   0.00000  -0.19826  -0.19827   2.01604
    A3        1.83022   0.00003   0.00000   0.00058   0.00058   1.83080
    A4        1.55982  -0.00001   0.00000   0.06450   0.06450   1.62431
    A5        3.07006   0.00005   0.00000   0.08447   0.08447   3.15454
    D1       -3.12430  -0.00004   0.00000  -0.00965  -0.00965  -3.13394
         Item               Value     Threshold  Converged?
 Maximum Force            0.000087     0.000450     YES
 RMS     Force            0.000043     0.000300     YES
 Maximum Displacement     0.193920     0.001800     NO 
 RMS     Displacement     0.134775     0.001200     NO 
 Predicted change in Energy=-4.280213D-05
                           ----------------------------
                           ! Non-Optimized Parameters !
                           ! (Angstroms and Degrees)  !
 --------------------------                            --------------------------
 ! Name  Definition              Value          Derivative Info.                !
 --------------------------------------------------------------------------------
 ! R1    R(1,2)                  1.1343         -DE/DX =    0.0                 !
 ! R2    R(1,3)                  3.2735         -DE/DX =    0.0                 !
 ! R3    R(3,4)                  0.9648         -DE/DX =    0.0                 !
 ! R4    R(3,5)                  0.9649         -DE/DX =    0.0                 !
 ! A1    A(1,3,4)              139.5898         -DE/DX =    0.0001              !
 ! A2    A(1,3,5)              115.5106         -DE/DX =   -0.0001              !
 ! A3    A(4,3,5)              104.8974         -DE/DX =    0.0                 !
 ! A4    L(2,1,3,4,-1)          93.0663         -DE/DX =    0.0                 !
 ! A5    L(2,1,3,4,-2)         180.7416         -DE/DX =    0.0001              !
 ! D1    D(1,3,5,4)           -179.5618         -DE/DX =    0.0                 !
 --------------------------------------------------------------------------------
 GradGradGradGradGradGradGradGradGradGradGradGradGradGradGradGradGradGrad


 ----------------------------------------------------------------------

 Electric dipole moment (input orientation):
 (Debye = 10**-18 statcoulomb cm , SI units = C m)
                  (au)            (Debye)         (10**-30 SI)
   Tot        0.802832D+00      0.204060D+01      0.680670D+01
   x         -0.448693D+00     -0.114046D+01     -0.380418D+01
   y         -0.665439D+00     -0.169138D+01     -0.564183D+01
   z          0.201307D-01      0.511671D-01      0.170675D+00

 Dipole polarizability, Alpha (input orientation).
 (esu units = cm**3 , SI units = C**2 m**2 J**-1)
 Alpha(0;0):
               (au)            (10**-24 esu)      (10**-40 SI)
   iso        0.226280D+02      0.335312D+01      0.373085D+01
   aniso      0.415457D+01      0.615644D+00      0.684997D+00
   xx         0.243634D+02      0.361029D+01      0.401699D+01
   yx        -0.994634D+00     -0.147389D+00     -0.163993D+00
   yy         0.233158D+02      0.345505D+01      0.384426D+01
   zx         0.224723D+00      0.333006D-01      0.370519D-01
   zy        -0.187468D+00     -0.277799D-01     -0.309093D-01
   zz         0.202047D+02      0.299403D+01      0.333131D+01

 ----------------------------------------------------------------------

 Dipole orientation:
     6        -10.24873262          6.85204145         -1.60707619
     8         -8.37996369          5.80241225         -1.57369381
     8        -10.31173597          6.79204700          4.60550974
     1         -9.12681328          5.99449262          5.73898163
     1        -11.52426786          7.60862924          5.69521403

 Electric dipole moment (dipole orientation):
 (Debye = 10**-18 statcoulomb cm , SI units = C m)
                  (au)            (Debye)         (10**-30 SI)
   Tot        0.802832D+00      0.204060D+01      0.680670D+01
   x          0.000000D+00      0.000000D+00      0.000000D+00
   y          0.000000D+00      0.000000D+00      0.000000D+00
   z          0.802832D+00      0.204060D+01      0.680670D+01

 Dipole polarizability, Alpha (dipole orientation).
 (esu units = cm**3 , SI units = C**2 m**2 J**-1)
 Alpha(0;0):
               (au)            (10**-24 esu)      (10**-40 SI)
   iso        0.226280D+02      0.335312D+01      0.373085D+01
   aniso      0.415457D+01      0.615644D+00      0.684997D+00
   xx         0.237449D+02      0.351863D+01      0.391500D+01
   yx        -0.209314D+01     -0.310171D+00     -0.345112D+00
   yy         0.214180D+02      0.317382D+01      0.353136D+01
   zx        -0.106005D+00     -0.157083D-01     -0.174778D-01
   zy         0.312939D-01      0.463728D-02      0.515967D-02
   zz         0.227211D+02      0.336692D+01      0.374620D+01

 ----------------------------------------------------------------------
 Unable to Open any file for archive entry.
 1|1|UNPC-TABISEAL|Freq|RB3LYP|Aug-CC-pVDZ|C1H2O2|17108|10-May-2023|0||
 #N Geom=AllCheck Guess=TCheck SCRF=Check GenChk RB3LYP/Aug-CC-pVDZ Fre
 q||Title Card Required||0,1|C,-4.9341154387,4.3515765533,-0.0469773931
 |O,-4.0054047347,3.7068576012,0.045770841|O,-6.7803250175,1.63123321,-
 0.0094910106|H,-6.4888547179,0.7115241604,0.0061703315|H,-7.7440095412
 ,1.585744655,0.0045272312||Version=EM64W-G16RevC.01|State=1-A|HF=-189.
 7756839|RMSD=1.287e-009|RMSF=3.405e-005|ZeroPoint=0.026838|Thermal=0.0
 328453|ETot=-189.7428387|HTot=-189.7418945|GTot=-189.7788424|Dipole=-0
 .448693,-0.6654389,0.0201307|DipoleDeriv=0.5148371,-0.3121025,0.050177
 7,-0.3160235,0.2390089,-0.0335725,0.0505634,-0.0334198,-0.0133272,-0.5
 137525,0.3368914,-0.0504411,0.3502584,-0.22424,0.0339035,-0.0511828,0.
 0331837,0.0005859,-0.4418551,0.0420467,-0.0035397,0.0361899,-0.4075515
 ,-0.0064403,-0.0039065,-0.0066278,-0.6380968,0.2753513,-0.0007802,0.00
 03637,-0.024652,0.1401149,0.0040666,0.0010618,0.0044743,0.3251541,0.16
 54192,-0.0660555,0.0034395,-0.0457729,0.2526677,0.0020427,0.0034642,0.
 0023896,0.3256841|Polar=24.3634362,-0.9946336,23.3158177,0.2247234,-0.
 1874678,20.2047217|Quadrupole=0.8090375,1.5839625,-2.393,2.7072957,-0.
 1549278,0.0168864|PG=C01 [X(C1H2O2)]|NImag=1||0.82753197,-0.57667665,0
 .40438343,0.08274130,-0.05775752,0.00842389,-0.82684942,0.57601970,-0.
 08265702,0.82684418,0.57607186,-0.40299145,0.05766026,-0.57504120,0.40
 226060,-0.08268372,0.05767354,-0.00841749,0.08261283,-0.05758812,0.008
 41883,-0.00132638,0.00125341,-0.00014828,0.00056147,-0.00165713,0.0001
 2822,0.60271049,0.00060873,-0.00170676,0.00012914,-0.00096951,0.001000
 73,-0.00011340,-0.10689543,0.52287156,-0.00008049,0.00011773,-0.000010
 51,0.00008045,-0.00009644,-0.00003758,-0.00584303,-0.00968507,0.000647
 68,0.00077197,-0.00066993,0.00007370,-0.00061497,0.00072153,-0.0000663
 3,-0.08502666,0.10351554,-0.00106377,0.10063899,0.00026793,-0.00045778
 ,0.00004138,-0.00022369,0.00034290,-0.00003391,0.16325812,-0.47689672,
 0.00794813,-0.15264061,0.47860793,0.00001530,-0.00000173,0.00011089,-0
 .00001334,0.00000984,-0.00008758,-0.00232397,0.00875319,-0.00030457,0.
 00188266,-0.00813531,0.00028450,-0.00012814,0.00007348,-0.00000970,0.0
 0005873,-0.00009506,0.00000899,-0.51691891,0.00374067,0.00690684,-0.01
 576934,-0.01066175,0.00043935,0.53275766,-0.00027187,0.00077256,-0.000
 07326,0.00021472,-0.00061277,0.00006189,-0.05595897,-0.04526881,0.0017
 1565,0.04907347,-0.00159632,-0.00062599,0.00694266,0.04670534,0.000007
 61,-0.00003201,-0.00010677,-0.00002292,0.00001446,0.00012383,0.0081870
 5,0.00091613,-0.00029501,-0.00082626,0.00017971,-0.00000324,-0.0073454
 8,-0.00107829,0.00028119||-0.00000122,-0.00001279,-0.00002525,0.000018
 97,-0.00000741,0.00002736,-0.00003076,0.00009314,-0.00001392,0.0000258
 6,-0.00001081,-0.00001316,-0.00001285,-0.00006213,0.00002497|||@
 The archive entry for this job was punched.


 THE MOST INCOMPREHENSIBLE THING ABOUT THE WORLD
 IS THAT IT IS COMPREHENSIBLE. -- A. EINSTEIN
 Job cpu time:       0 days  0 hours  1 minutes 23.0 seconds.
 Elapsed time:       0 days  0 hours  1 minutes 20.6 seconds.
 File lengths (MBytes):  RWF=     10 Int=      0 D2E=      0 Chk=      2 Scr=      1
 Normal termination of Gaussian 16 at Wed May 10 18:02:04 2023.
