 Entering Link 1 = C:\G16W\l1.exe PID=      9980.
  
 Copyright (c) 1988-2019, Gaussian, Inc.  All Rights Reserved.
  
 This is part of the Gaussian(R) 16 program.  It is based on
 the Gaussian(R) 09 system (copyright 2009, Gaussian, Inc.),
 the Gaussian(R) 03 system (copyright 2003, Gaussian, Inc.),
 the Gaussian(R) 98 system (copyright 1998, Gaussian, Inc.),
 the Gaussian(R) 94 system (copyright 1995, Gaussian, Inc.),
 the Gaussian 92(TM) system (copyright 1992, Gaussian, Inc.),
 the Gaussian 90(TM) system (copyright 1990, Gaussian, Inc.),
 the Gaussian 88(TM) system (copyright 1988, Gaussian, Inc.),
 the Gaussian 86(TM) system (copyright 1986, Carnegie Mellon
 University), and the Gaussian 82(TM) system (copyright 1983,
 Carnegie Mellon University). Gaussian is a federally registered
 trademark of Gaussian, Inc.
  
 This software contains proprietary and confidential information,
 including trade secrets, belonging to Gaussian, Inc.
  
 This software is provided under written license and may be
 used, copied, transmitted, or stored only in accord with that
 written license.
  
 The following legend is applicable only to US Government
 contracts under FAR:
  
                    RESTRICTED RIGHTS LEGEND
  
 Use, reproduction and disclosure by the US Government is
 subject to restrictions as set forth in subparagraphs (a)
 and (c) of the Commercial Computer Software - Restricted
 Rights clause in FAR 52.227-19.
  
 Gaussian, Inc.
 340 Quinnipiac St., Bldg. 40, Wallingford CT 06492
  
  
 ---------------------------------------------------------------
 Warning -- This program may not be used in any manner that
 competes with the business of Gaussian, Inc. or will provide
 assistance to any competitor of Gaussian, Inc.  The licensee
 of this program is prohibited from giving any competitor of
 Gaussian, Inc. access to this program.  By using this program,
 the user acknowledges that Gaussian, Inc. is engaged in the
 business of creating and licensing software in the field of
 computational chemistry and represents and warrants to the
 licensee that it is not a competitor of Gaussian, Inc. and that
 it will not use this program in any manner prohibited above.
 ---------------------------------------------------------------
  

 Cite this work as:
 Gaussian 16, Revision C.01,
 M. J. Frisch, G. W. Trucks, H. B. Schlegel, G. E. Scuseria, 
 M. A. Robb, J. R. Cheeseman, G. Scalmani, V. Barone, 
 G. A. Petersson, H. Nakatsuji, X. Li, M. Caricato, A. V. Marenich, 
 J. Bloino, B. G. Janesko, R. Gomperts, B. Mennucci, H. P. Hratchian, 
 J. V. Ortiz, A. F. Izmaylov, J. L. Sonnenberg, D. Williams-Young, 
 F. Ding, F. Lipparini, F. Egidi, J. Goings, B. Peng, A. Petrone, 
 T. Henderson, D. Ranasinghe, V. G. Zakrzewski, J. Gao, N. Rega, 
 G. Zheng, W. Liang, M. Hada, M. Ehara, K. Toyota, R. Fukuda, 
 J. Hasegawa, M. Ishida, T. Nakajima, Y. Honda, O. Kitao, H. Nakai, 
 T. Vreven, K. Throssell, J. A. Montgomery, Jr., J. E. Peralta, 
 F. Ogliaro, M. J. Bearpark, J. J. Heyd, E. N. Brothers, K. N. Kudin, 
 V. N. Staroverov, T. A. Keith, R. Kobayashi, J. Normand, 
 K. Raghavachari, A. P. Rendell, J. C. Burant, S. S. Iyengar, 
 J. Tomasi, M. Cossi, J. M. Millam, M. Klene, C. Adamo, R. Cammi, 
 J. W. Ochterski, R. L. Martin, K. Morokuma, O. Farkas, 
 J. B. Foresman, and D. J. Fox, Gaussian, Inc., Wallingford CT, 2019.
 
 ******************************************
 Gaussian 16:  EM64W-G16RevC.01 30-May-2019
                12-Jun-2023 
 ******************************************
 %chk=C:\Calculation\20230510.2\(CO)1(H2O)1\(CO)1(H2O)1(2).1.chk
 ----------------------------------------
 # opt freq b3lyp/6-31g geom=connectivity
 ----------------------------------------
 1/18=20,19=15,26=3,38=1,57=2/1,3;
 2/9=110,12=2,17=6,18=5,40=1/2;
 3/5=1,6=6,11=2,25=1,30=1,71=1,74=-5/1,2,3;
 4//1;
 5/5=2,38=5/2;
 6/7=2,8=2,9=2,10=2,28=1/1;
 7//1,2,3,16;
 1/18=20,19=15,26=3/3(2);
 2/9=110/2;
 99//99;
 2/9=110/2;
 3/5=1,6=6,11=2,25=1,30=1,71=1,74=-5/1,2,3;
 4/5=5,16=3,69=1/1;
 5/5=2,38=5/2;
 7//1,2,3,16;
 1/18=20,19=15,26=3/3(-5);
 2/9=110/2;
 6/7=2,8=2,9=2,10=2,19=2,28=1/1;
 99/9=1/99;
 -------------------
 Title Card Required
 -------------------
 Symbolic Z-matrix:
 Charge =  0 Multiplicity = 1
 C                     2.13253  -0.06812   0.01013 
 O                     0.98629   0.08443  -0.01026 
 O                    -2.13549  -0.11911   0.00067 
 H                    -1.16016  -0.12039   0.00122 
 H                    -2.44142   0.80653   0.01469 
 
 Add virtual bond connecting atoms H4         and O2         Dist= 4.07D+00.

 GradGradGradGradGradGradGradGradGradGradGradGradGradGradGradGradGradGrad
 Berny optimization.
 Initialization pass.
                           ----------------------------
                           !    Initial Parameters    !
                           ! (Angstroms and Degrees)  !
 --------------------------                            --------------------------
 ! Name  Definition              Value          Derivative Info.                !
 --------------------------------------------------------------------------------
 ! R1    R(1,2)                  1.1565         estimate D2E/DX2                !
 ! R2    R(2,4)                  2.1562         estimate D2E/DX2                !
 ! R3    R(3,4)                  0.9753         estimate D2E/DX2                !
 ! R4    R(3,5)                  0.975          estimate D2E/DX2                !
 ! A1    A(4,3,5)              108.3619         estimate D2E/DX2                !
 ! A2    L(1,2,4,-3,-1)        166.9686         estimate D2E/DX2                !
 ! A3    L(1,2,4,-2,-2)        178.6748         estimate D2E/DX2                !
 ! A4    L(2,4,3,5,-1)         174.4782         estimate D2E/DX2                !
 ! A5    L(2,4,3,5,-2)         179.3609         estimate D2E/DX2                !
 --------------------------------------------------------------------------------
 Trust Radius=3.00D-01 FncErr=1.00D-07 GrdErr=1.00D-06 EigMax=2.50D+02 EigMin=1.00D-04
 Number of steps in this run=     20 maximum allowed number of steps=    100.
 GradGradGradGradGradGradGradGradGradGradGradGradGradGradGradGradGradGrad

                          Input orientation:                          
 ---------------------------------------------------------------------
 Center     Atomic      Atomic             Coordinates (Angstroms)
 Number     Number       Type             X           Y           Z
 ---------------------------------------------------------------------
      1          6           0        2.132534   -0.068119    0.010130
      2          8           0        0.986285    0.084429   -0.010255
      3          8           0       -2.135489   -0.119108    0.000668
      4          1           0       -1.160157   -0.120387    0.001223
      5          1           0       -2.441421    0.806528    0.014693
 ---------------------------------------------------------------------
                    Distance matrix (angstroms):
                    1          2          3          4          5
     1  C    0.000000
     2  O    1.156535   0.000000
     3  O    4.268338   3.128421   0.000000
     4  H    3.293118   2.156222   0.975333   0.000000
     5  H    4.656833   3.503030   0.974984   1.581452   0.000000
 Stoichiometry    CH2O2
 Framework group  C1[X(CH2O2)]
 Deg. of freedom     9
 Full point group                 C1      NOp   1
 Largest Abelian subgroup         C1      NOp   1
 Largest concise Abelian subgroup C1      NOp   1
                         Standard orientation:                         
 ---------------------------------------------------------------------
 Center     Atomic      Atomic             Coordinates (Angstroms)
 Number     Number       Type             X           Y           Z
 ---------------------------------------------------------------------
      1          6           0        2.132534   -0.068119    0.010130
      2          8           0        0.986285    0.084429   -0.010255
      3          8           0       -2.135489   -0.119108    0.000668
      4          1           0       -1.160157   -0.120387    0.001223
      5          1           0       -2.441421    0.806528    0.014693
 ---------------------------------------------------------------------
 Rotational constants (GHZ):         487.5840935           3.3650438           3.3421108
 Standard basis: 6-31G (6D, 7F)
 There are    31 symmetry adapted cartesian basis functions of A   symmetry.
 There are    31 symmetry adapted basis functions of A   symmetry.
    31 basis functions,    74 primitive gaussians,    31 cartesian basis functions
    12 alpha electrons       12 beta electrons
       nuclear repulsion energy        52.5741501657 Hartrees.
 NAtoms=    5 NActive=    5 NUniq=    5 SFac= 1.00D+00 NAtFMM=   60 NAOKFM=F Big=F
 Integral buffers will be    131072 words long.
 Raffenetti 2 integral format.
 Two-electron integral symmetry is turned on.
 One-electron integrals computed using PRISM.
 NBasis=    31 RedAO= T EigKep=  2.15D-02  NBF=    31
 NBsUse=    31 1.00D-06 EigRej= -1.00D+00 NBFU=    31
 ExpMin= 1.61D-01 ExpMax= 5.48D+03 ExpMxC= 8.25D+02 IAcc=3 IRadAn=         5 AccDes= 0.00D+00
 Harris functional with IExCor=  402 and IRadAn=       5 diagonalized for initial guess.
 HarFok:  IExCor=  402 AccDes= 0.00D+00 IRadAn=         5 IDoV= 1 UseB2=F ITyADJ=14
 ICtDFT=  3500011 ScaDFX=  1.000000  1.000000  1.000000  1.000000
 FoFCou: FMM=F IPFlag=           0 FMFlag=      100000 FMFlg1=           0
         NFxFlg=           0 DoJE=T BraDBF=F KetDBF=T FulRan=T
         wScrn=  0.000000 ICntrl=       500 IOpCl=  0 I1Cent=   200000004 NGrid=           0
         NMat0=    1 NMatS0=      1 NMatT0=    0 NMatD0=    1 NMtDS0=    0 NMtDT0=    0
 Petite list used in FoFCou.
 Keep R1 ints in memory in canonical form, NReq=987505.
 Requested convergence on RMS density matrix=1.00D-08 within 128 cycles.
 Requested convergence on MAX density matrix=1.00D-06.
 Requested convergence on             energy=1.00D-06.
 No special actions if energy rises.
 Integral accuracy reduced to 1.0D-05 until final iterations.
 Initial convergence to 1.0D-05 achieved.  Increase integral accuracy.
 SCF Done:  E(RB3LYP) =  -189.649056241     A.U. after   12 cycles
            NFock= 12  Conv=0.22D-08     -V/T= 2.0054

 **********************************************************************

            Population analysis using the SCF Density.

 **********************************************************************

 Orbital symmetries:
       Occupied  (A) (A) (A) (A) (A) (A) (A) (A) (A) (A) (A) (A)
       Virtual   (A) (A) (A) (A) (A) (A) (A) (A) (A) (A) (A) (A)
                 (A) (A) (A) (A) (A) (A) (A)
 The electronic state is 1-A.
 Alpha  occ. eigenvalues --  -19.28676 -19.11967 -10.35204  -1.21055  -0.99350
 Alpha  occ. eigenvalues --   -0.60115  -0.51505  -0.49589  -0.49562  -0.39168
 Alpha  occ. eigenvalues --   -0.33550  -0.27750
 Alpha virt. eigenvalues --   -0.06126  -0.06093   0.07322   0.16858   0.26333
 Alpha virt. eigenvalues --    0.49291   0.49300   0.57228   0.72811   0.83633
 Alpha virt. eigenvalues --    0.86860   0.87567   0.88263   0.91360   0.95146
 Alpha virt. eigenvalues --    0.98791   1.18532   1.54341   1.63247
          Condensed to atoms (all electrons):
               1          2          3          4          5
     1  C    5.400874   0.351791   0.000096   0.000904   0.000013
     2  O    0.351791   7.857621  -0.002758   0.019177   0.000115
     3  O    0.000096  -0.002758   8.261884   0.241671   0.242880
     4  H    0.000904   0.019177   0.241671   0.400481  -0.034189
     5  H    0.000013   0.000115   0.242880  -0.034189   0.439738
 Mulliken charges:
               1
     1  C    0.246321
     2  O   -0.225946
     3  O   -0.743773
     4  H    0.371955
     5  H    0.351443
 Sum of Mulliken charges =   0.00000
 Mulliken charges with hydrogens summed into heavy atoms:
               1
     1  C    0.246321
     2  O   -0.225946
     3  O   -0.020375
 Electronic spatial extent (au):  <R**2>=            325.8498
 Charge=              0.0000 electrons
 Dipole moment (field-independent basis, Debye):
    X=              1.9843    Y=              1.8893    Z=              0.0339  Tot=              2.7401
 Quadrupole moment (field-independent basis, Debye-Ang):
   XX=            -22.6364   YY=            -15.6003   ZZ=            -17.1199
   XY=             -4.7814   XZ=             -0.1137   YZ=              0.0343
 Traceless Quadrupole moment (field-independent basis, Debye-Ang):
   XX=             -4.1842   YY=              2.8519   ZZ=              1.3323
   XY=             -4.7814   XZ=             -0.1137   YZ=              0.0343
 Octapole moment (field-independent basis, Debye-Ang**2):
  XXX=             -6.9844  YYY=              1.8922  ZZZ=             -0.0387  XYY=             -4.0497
  XXY=             14.1578  XXZ=              0.0030  XZZ=             -0.3971  YZZ=              0.4232
  YYZ=              0.0000  XYZ=             -0.0534
 Hexadecapole moment (field-independent basis, Debye-Ang**3):
 XXXX=           -421.7541 YYYY=            -14.4686 ZZZZ=            -13.1146 XXXY=            -28.6382
 XXXZ=             -1.0921 YYYX=             -3.2536 YYYZ=              0.0323 ZZZX=             -0.1428
 ZZZY=              0.0163 XXYY=            -57.2132 XXZZ=            -64.8715 YYZZ=             -4.7546
 XXYZ=              0.1923 YYXZ=             -0.0830 ZZXY=             -0.5308
 N-N= 5.257415016569D+01 E-N=-5.514219513844D+02  KE= 1.886216370324D+02
 Calling FoFJK, ICntrl=      2127 FMM=F ISym2X=0 I1Cent= 0 IOpClX= 0 NMat=1 NMatS=1 NMatT=0.
 ***** Axes restored to original set *****
 -------------------------------------------------------------------
 Center     Atomic                   Forces (Hartrees/Bohr)
 Number     Number              X              Y              Z
 -------------------------------------------------------------------
      1        6           0.000773710   -0.000108187   -0.000022929
      2        8          -0.000718032    0.000100206    0.000057850
      3        8          -0.000059529    0.000007606    0.000052967
      4        1           0.000194530   -0.000104566   -0.000075748
      5        1          -0.000190679    0.000104940   -0.000012139
 -------------------------------------------------------------------
 Cartesian Forces:  Max     0.000773710 RMS     0.000288473

 GradGradGradGradGradGradGradGradGradGradGradGradGradGradGradGradGradGrad
 Berny optimization.
 FormGI is forming the generalized inverse of G from B-inverse, IUseBI=4.
 Internal  Forces:  Max     0.000780700 RMS     0.000295830
 Search for a local minimum.
 Step number   1 out of a maximum of   20
 All quantities printed in internal units (Hartrees-Bohrs-Radians)
 Mixed Optimization -- En-DIIS/RFO-DIIS
 Second derivative matrix not updated -- first step.
 The second derivative matrix:
                          R1        R2        R3        R4        A1
           R1           1.30088
           R2           0.00000   0.03361
           R3           0.00000   0.00000   0.52302
           R4           0.00000   0.00000   0.00000   0.52372
           A1           0.00000   0.00000   0.00000   0.00000   0.16000
           A2           0.00000   0.00000   0.00000   0.00000   0.00000
           A3           0.00000   0.00000   0.00000   0.00000   0.00000
           A4           0.00000   0.00000   0.00000   0.00000   0.00000
           A5           0.00000   0.00000   0.00000   0.00000   0.00000
                          A2        A3        A4        A5
           A2           0.00230
           A3           0.00000   0.00230
           A4           0.00000   0.00000   0.01355
           A5           0.00000   0.00000   0.00000   0.01355
 ITU=  0
     Eigenvalues ---    0.00230   0.00230   0.01355   0.01355   0.03361
     Eigenvalues ---    0.16000   0.52302   0.52372   1.30088
 RFO step:  Lambda=-4.17354949D-06 EMin= 2.30000000D-03
 Linear search not attempted -- first point.
 Iteration  1 RMS(Cart)=  0.01444994 RMS(Int)=  0.00024636
 Iteration  2 RMS(Cart)=  0.00024623 RMS(Int)=  0.00000000
 Iteration  3 RMS(Cart)=  0.00000001 RMS(Int)=  0.00000000
 Variable       Old X    -DE/DX   Delta X   Delta X   Delta X     New X
                                 (Linear)    (Quad)   (Total)
    R1        2.18553   0.00078   0.00000   0.00060   0.00060   2.18613
    R2        4.07467   0.00005   0.00000   0.00162   0.00162   4.07629
    R3        1.84311   0.00025   0.00000   0.00048   0.00048   1.84359
    R4        1.84245   0.00016   0.00000   0.00030   0.00030   1.84276
    A1        1.89127   0.00027   0.00000   0.00171   0.00171   1.89298
    A2        2.91415  -0.00001   0.00000  -0.00504  -0.00504   2.90912
    A3        3.11846   0.00007   0.00000   0.03238   0.03238   3.15085
    A4        3.04522   0.00007   0.00000   0.00482   0.00482   3.05004
    A5        3.13044   0.00005   0.00000   0.00372   0.00372   3.13416
         Item               Value     Threshold  Converged?
 Maximum Force            0.000781     0.000450     NO 
 RMS     Force            0.000296     0.000300     YES
 Maximum Displacement     0.031213     0.001800     NO 
 RMS     Displacement     0.014438     0.001200     NO 
 Predicted change in Energy=-2.086771D-06
 GradGradGradGradGradGradGradGradGradGradGradGradGradGradGradGradGradGrad

                          Input orientation:                          
 ---------------------------------------------------------------------
 Center     Atomic      Atomic             Coordinates (Angstroms)
 Number     Number       Type             X           Y           Z
 ---------------------------------------------------------------------
      1          6           0        2.134023   -0.072005   -0.002584
      2          8           0        0.988189    0.087038    0.006262
      3          8           0       -2.134822   -0.119500   -0.001849
      4          1           0       -1.159252   -0.116624    0.002967
      5          1           0       -2.446385    0.804434    0.011663
 ---------------------------------------------------------------------
                    Distance matrix (angstroms):
                    1          2          3          4          5
     1  C    0.000000
     2  O    1.156853   0.000000
     3  O    4.269109   3.129844   0.000000
     4  H    3.293581   2.157079   0.975586   0.000000
     5  H    4.663527   3.508701   0.975145   1.582762   0.000000
 Stoichiometry    CH2O2
 Framework group  C1[X(CH2O2)]
 Deg. of freedom     9
 Full point group                 C1      NOp   1
 Largest Abelian subgroup         C1      NOp   1
 Largest concise Abelian subgroup C1      NOp   1
                         Standard orientation:                         
 ---------------------------------------------------------------------
 Center     Atomic      Atomic             Coordinates (Angstroms)
 Number     Number       Type             X           Y           Z
 ---------------------------------------------------------------------
      1          6           0        2.132986   -0.071210   -0.003112
      2          8           0        0.987101    0.087598    0.002981
      3          8           0       -2.135843   -0.120074   -0.000594
      4          1           0       -1.160273   -0.116790    0.003963
      5          1           0       -2.447708    0.803849   -0.004387
 ---------------------------------------------------------------------
 Rotational constants (GHZ):         483.1719634           3.3627896           3.3395595
 Standard basis: 6-31G (6D, 7F)
 There are    31 symmetry adapted cartesian basis functions of A   symmetry.
 There are    31 symmetry adapted basis functions of A   symmetry.
    31 basis functions,    74 primitive gaussians,    31 cartesian basis functions
    12 alpha electrons       12 beta electrons
       nuclear repulsion energy        52.5561587451 Hartrees.
 NAtoms=    5 NActive=    5 NUniq=    5 SFac= 1.00D+00 NAtFMM=   60 NAOKFM=F Big=F
 Integral buffers will be    131072 words long.
 Raffenetti 2 integral format.
 Two-electron integral symmetry is turned on.
 One-electron integrals computed using PRISM.
 NBasis=    31 RedAO= T EigKep=  2.16D-02  NBF=    31
 NBsUse=    31 1.00D-06 EigRej= -1.00D+00 NBFU=    31
 Initial guess from the checkpoint file:  "C:\Calculation\20230510.2\(CO)1(H2O)1\(CO)1(H2O)1(2).1.chk"
 B after Tr=     0.000000    0.000000    0.000000
         Rot=    1.000000   -0.000188    0.000001   -0.000054 Ang=  -0.02 deg.
 ExpMin= 1.61D-01 ExpMax= 5.48D+03 ExpMxC= 8.25D+02 IAcc=3 IRadAn=         5 AccDes= 0.00D+00
 Harris functional with IExCor=  402 and IRadAn=       5 diagonalized for initial guess.
 HarFok:  IExCor=  402 AccDes= 0.00D+00 IRadAn=         5 IDoV= 1 UseB2=F ITyADJ=14
 ICtDFT=  3500011 ScaDFX=  1.000000  1.000000  1.000000  1.000000
 FoFCou: FMM=F IPFlag=           0 FMFlag=      100000 FMFlg1=           0
         NFxFlg=           0 DoJE=T BraDBF=F KetDBF=T FulRan=T
         wScrn=  0.000000 ICntrl=       500 IOpCl=  0 I1Cent=   200000004 NGrid=           0
         NMat0=    1 NMatS0=      1 NMatT0=    0 NMatD0=    1 NMtDS0=    0 NMtDT0=    0
 Petite list used in FoFCou.
 Keep R1 ints in memory in canonical form, NReq=987505.
 Requested convergence on RMS density matrix=1.00D-08 within 128 cycles.
 Requested convergence on MAX density matrix=1.00D-06.
 Requested convergence on             energy=1.00D-06.
 No special actions if energy rises.
 Integral accuracy reduced to 1.0D-05 until final iterations.
 Initial convergence to 1.0D-05 achieved.  Increase integral accuracy.
 SCF Done:  E(RB3LYP) =  -189.649058449     A.U. after   11 cycles
            NFock= 11  Conv=0.71D-09     -V/T= 2.0055
 Calling FoFJK, ICntrl=      2127 FMM=F ISym2X=0 I1Cent= 0 IOpClX= 0 NMat=1 NMatS=1 NMatT=0.
 ***** Axes restored to original set *****
 -------------------------------------------------------------------
 Center     Atomic                   Forces (Hartrees/Bohr)
 Number     Number              X              Y              Z
 -------------------------------------------------------------------
      1        6           0.000120863   -0.000017721    0.000001918
      2        8          -0.000081021    0.000007766   -0.000002013
      3        8           0.000014456   -0.000000665    0.000002802
      4        1          -0.000090091    0.000059835   -0.000002690
      5        1           0.000035792   -0.000049214   -0.000000017
 -------------------------------------------------------------------
 Cartesian Forces:  Max     0.000120863 RMS     0.000049785

 GradGradGradGradGradGradGradGradGradGradGradGradGradGradGradGradGradGrad
 Berny optimization.
 Using GEDIIS/GDIIS optimizer.
 FormGI is forming the generalized inverse of G from B-inverse, IUseBI=4.
 Internal  Forces:  Max     0.000122139 RMS     0.000054654
 Search for a local minimum.
 Step number   2 out of a maximum of   20
 All quantities printed in internal units (Hartrees-Bohrs-Radians)
 Mixed Optimization -- En-DIIS/RFO-DIIS
 Swapping is turned off.
 Update second derivatives using D2CorX and points    1    2
 DE= -2.21D-06 DEPred=-2.09D-06 R= 1.06D+00
 TightC=F SS=  1.41D+00  RLast= 3.34D-02 DXNew= 5.0454D-01 1.0028D-01
 Trust test= 1.06D+00 RLast= 3.34D-02 DXMaxT set to 3.00D-01
 The second derivative matrix:
                          R1        R2        R3        R4        A1
           R1           1.26255
           R2          -0.00762   0.03296
           R3           0.00235  -0.00210   0.53046
           R4           0.00579  -0.00123   0.00669   0.52938
           A1          -0.00089  -0.00237   0.00654   0.00615   0.16552
           A2           0.00063   0.00011  -0.00001  -0.00006   0.00004
           A3          -0.00077  -0.00066   0.00154   0.00150   0.00126
           A4          -0.01111  -0.00083  -0.00341  -0.00212  -0.00375
           A5          -0.00175  -0.00048   0.00049   0.00062   0.00028
                          A2        A3        A4        A5
           A2           0.00229
           A3           0.00002   0.00258
           A4           0.00017  -0.00103   0.01254
           A5           0.00003   0.00004  -0.00071   0.01349
 ITU=  1  0
     Eigenvalues ---    0.00228   0.00245   0.01201   0.01384   0.03293
     Eigenvalues ---    0.16544   0.52320   0.53685   1.26275
 En-DIIS/RFO-DIIS/Sim-DIIS IScMMF=       -3 using points:     2    1
 RFO step:  Lambda=-3.70428521D-07.
 DidBck=F Rises=F RFO-DIIS coefs:    1.03748   -0.03748
 Iteration  1 RMS(Cart)=  0.00347270 RMS(Int)=  0.00000662
 Iteration  2 RMS(Cart)=  0.00000811 RMS(Int)=  0.00000000
 Iteration  3 RMS(Cart)=  0.00000000 RMS(Int)=  0.00000000
 Variable       Old X    -DE/DX   Delta X   Delta X   Delta X     New X
                                 (Linear)    (Quad)   (Total)
    R1        2.18613   0.00012   0.00002   0.00013   0.00015   2.18628
    R2        4.07629   0.00004   0.00006   0.00128   0.00134   4.07763
    R3        1.84359  -0.00005   0.00002  -0.00008  -0.00006   1.84353
    R4        1.84276  -0.00006   0.00001  -0.00010  -0.00009   1.84267
    A1        1.89298  -0.00003   0.00006  -0.00013  -0.00007   1.89291
    A2        2.90912   0.00000  -0.00019  -0.00125  -0.00144   2.90767
    A3        3.15085  -0.00001   0.00121  -0.00101   0.00021   3.15106
    A4        3.05004   0.00006   0.00018   0.00472   0.00490   3.05493
    A5        3.13416   0.00000   0.00014   0.00045   0.00059   3.13475
         Item               Value     Threshold  Converged?
 Maximum Force            0.000122     0.000450     YES
 RMS     Force            0.000055     0.000300     YES
 Maximum Displacement     0.006143     0.001800     NO 
 RMS     Displacement     0.003471     0.001200     NO 
 Predicted change in Energy=-1.852157D-07
 GradGradGradGradGradGradGradGradGradGradGradGradGradGradGradGradGradGrad

                          Input orientation:                          
 ---------------------------------------------------------------------
 Center     Atomic      Atomic             Coordinates (Angstroms)
 Number     Number       Type             X           Y           Z
 ---------------------------------------------------------------------
      1          6           0        2.134975   -0.074087   -0.002625
      2          8           0        0.989477    0.087919    0.006346
      3          8           0       -2.134421   -0.119925   -0.001755
      4          1           0       -1.158898   -0.113373    0.002843
      5          1           0       -2.449381    0.802808    0.011649
 ---------------------------------------------------------------------
                    Distance matrix (angstroms):
                    1          2          3          4          5
     1  C    0.000000
     2  O    1.156932   0.000000
     3  O    4.269642   3.130815   0.000000
     4  H    3.294111   2.157787   0.975556   0.000000
     5  H    4.667490   3.512384   0.975098   1.582660   0.000000
 Stoichiometry    CH2O2
 Framework group  C1[X(CH2O2)]
 Deg. of freedom     9
 Full point group                 C1      NOp   1
 Largest Abelian subgroup         C1      NOp   1
 Largest concise Abelian subgroup C1      NOp   1
                         Standard orientation:                         
 ---------------------------------------------------------------------
 Center     Atomic      Atomic             Coordinates (Angstroms)
 Number     Number       Type             X           Y           Z
 ---------------------------------------------------------------------
      1          6           0        2.133261   -0.072594   -0.003130
      2          8           0        0.987681    0.088965    0.003006
      3          8           0       -2.136110   -0.120595   -0.000560
      4          1           0       -1.160590   -0.113458    0.003723
      5          1           0       -2.451544    0.802065   -0.004514
 ---------------------------------------------------------------------
 Rotational constants (GHZ):         481.1030815           3.3612292           3.3379215
 Standard basis: 6-31G (6D, 7F)
 There are    31 symmetry adapted cartesian basis functions of A   symmetry.
 There are    31 symmetry adapted basis functions of A   symmetry.
    31 basis functions,    74 primitive gaussians,    31 cartesian basis functions
    12 alpha electrons       12 beta electrons
       nuclear repulsion energy        52.5482767610 Hartrees.
 NAtoms=    5 NActive=    5 NUniq=    5 SFac= 1.00D+00 NAtFMM=   60 NAOKFM=F Big=F
 Integral buffers will be    131072 words long.
 Raffenetti 2 integral format.
 Two-electron integral symmetry is turned on.
 One-electron integrals computed using PRISM.
 NBasis=    31 RedAO= T EigKep=  2.16D-02  NBF=    31
 NBsUse=    31 1.00D-06 EigRej= -1.00D+00 NBFU=    31
 Initial guess from the checkpoint file:  "C:\Calculation\20230510.2\(CO)1(H2O)1\(CO)1(H2O)1(2).1.chk"
 B after Tr=     0.000000    0.000000    0.000000
         Rot=    1.000000    0.000094    0.000000   -0.000031 Ang=   0.01 deg.
 Keep R1 ints in memory in canonical form, NReq=987505.
 Requested convergence on RMS density matrix=1.00D-08 within 128 cycles.
 Requested convergence on MAX density matrix=1.00D-06.
 Requested convergence on             energy=1.00D-06.
 No special actions if energy rises.
 SCF Done:  E(RB3LYP) =  -189.649058761     A.U. after    8 cycles
            NFock=  8  Conv=0.73D-08     -V/T= 2.0055
 Calling FoFJK, ICntrl=      2127 FMM=F ISym2X=0 I1Cent= 0 IOpClX= 0 NMat=1 NMatS=1 NMatT=0.
 ***** Axes restored to original set *****
 -------------------------------------------------------------------
 Center     Atomic                   Forces (Hartrees/Bohr)
 Number     Number              X              Y              Z
 -------------------------------------------------------------------
      1        6          -0.000045202    0.000004740    0.000003755
      2        8           0.000074245   -0.000011710   -0.000004502
      3        8           0.000008801   -0.000021710    0.000001237
      4        1          -0.000045533    0.000035684   -0.000001248
      5        1           0.000007689   -0.000007004    0.000000758
 -------------------------------------------------------------------
 Cartesian Forces:  Max     0.000074245 RMS     0.000027996

 GradGradGradGradGradGradGradGradGradGradGradGradGradGradGradGradGradGrad
 Berny optimization.
 Using GEDIIS/GDIIS optimizer.
 FormGI is forming the generalized inverse of G from B-inverse, IUseBI=4.
 Internal  Forces:  Max     0.000045443 RMS     0.000024185
 Search for a local minimum.
 Step number   3 out of a maximum of   20
 All quantities printed in internal units (Hartrees-Bohrs-Radians)
 Mixed Optimization -- En-DIIS/RFO-DIIS
 Swapping is turned off.
 Update second derivatives using D2CorX and points    1    2    3
 DE= -3.11D-07 DEPred=-1.85D-07 R= 1.68D+00
 Trust test= 1.68D+00 RLast= 5.32D-03 DXMaxT set to 3.00D-01
 The second derivative matrix:
                          R1        R2        R3        R4        A1
           R1           1.50159
           R2          -0.00591   0.02984
           R3          -0.02142   0.00002   0.53120
           R4          -0.04165   0.00041   0.01000   0.53758
           A1          -0.01591  -0.00114   0.00710   0.00833   0.16593
           A2           0.00365   0.00049  -0.00056  -0.00089  -0.00030
           A3           0.00595   0.00001   0.00043  -0.00021   0.00058
           A4          -0.01061  -0.00561   0.00003   0.00081  -0.00175
           A5           0.00029  -0.00075   0.00050   0.00040   0.00028
                          A2        A3        A4        A5
           A2           0.00229
           A3           0.00003   0.00265
           A4           0.00071  -0.00007   0.00522
           A5           0.00009   0.00016  -0.00115   0.01348
 ITU=  0  1  0
     Eigenvalues ---    0.00190   0.00262   0.00409   0.01363   0.03106
     Eigenvalues ---    0.16549   0.52383   0.54293   1.50421
 En-DIIS/RFO-DIIS/Sim-DIIS IScMMF=       -3 using points:     3    2    1
 RFO step:  Lambda=-7.53531877D-07.
 DidBck=F Rises=F RFO-DIIS coefs:    2.93768   -2.00000    0.06232
 Iteration  1 RMS(Cart)=  0.01094455 RMS(Int)=  0.00006825
 Iteration  2 RMS(Cart)=  0.00008144 RMS(Int)=  0.00000000
 Iteration  3 RMS(Cart)=  0.00000000 RMS(Int)=  0.00000000
 Variable       Old X    -DE/DX   Delta X   Delta X   Delta X     New X
                                 (Linear)    (Quad)   (Total)
    R1        2.18628  -0.00005   0.00025  -0.00015   0.00010   2.18638
    R2        4.07763   0.00003   0.00249   0.00129   0.00378   4.08141
    R3        1.84353  -0.00002  -0.00014   0.00011  -0.00003   1.84350
    R4        1.84267  -0.00001  -0.00019   0.00015  -0.00004   1.84263
    A1        1.89291  -0.00001  -0.00024   0.00037   0.00013   1.89304
    A2        2.90767   0.00000  -0.00248  -0.00461  -0.00709   2.90058
    A3        3.15106  -0.00001  -0.00162  -0.00113  -0.00274   3.14831
    A4        3.05493   0.00004   0.00919   0.00488   0.01407   3.06900
    A5        3.13475   0.00000   0.00091   0.00074   0.00165   3.13640
         Item               Value     Threshold  Converged?
 Maximum Force            0.000045     0.000450     YES
 RMS     Force            0.000024     0.000300     YES
 Maximum Displacement     0.018314     0.001800     NO 
 RMS     Displacement     0.010927     0.001200     NO 
 Predicted change in Energy=-3.765164D-07
 GradGradGradGradGradGradGradGradGradGradGradGradGradGradGradGradGradGrad

                          Input orientation:                          
 ---------------------------------------------------------------------
 Center     Atomic      Atomic             Coordinates (Angstroms)
 Number     Number       Type             X           Y           Z
 ---------------------------------------------------------------------
      1          6           0        2.137283   -0.081342   -0.001399
      2          8           0        0.993363    0.091922    0.004872
      3          8           0       -2.132922   -0.121301   -0.001165
      4          1           0       -1.157548   -0.103681    0.002210
      5          1           0       -2.458425    0.797746    0.011942
 ---------------------------------------------------------------------
                    Distance matrix (angstroms):
                    1          2          3          4          5
     1  C    0.000000
     2  O    1.156984   0.000000
     3  O    4.270392   3.133554   0.000000
     4  H    3.294909   2.159789   0.975539   0.000000
     5  H    4.679050   3.523221   0.975075   1.582703   0.000000
 Stoichiometry    CH2O2
 Framework group  C1[X(CH2O2)]
 Deg. of freedom     9
 Full point group                 C1      NOp   1
 Largest Abelian subgroup         C1      NOp   1
 Largest concise Abelian subgroup C1      NOp   1
                         Standard orientation:                         
 ---------------------------------------------------------------------
 Center     Atomic      Atomic             Coordinates (Angstroms)
 Number     Number       Type             X           Y           Z
 ---------------------------------------------------------------------
      1          6           0        2.133565   -0.077886   -0.001790
      2          8           0        0.989461    0.094234    0.001696
      3          8           0       -2.136594   -0.122407   -0.000339
      4          1           0       -1.161240   -0.103688    0.002614
      5          1           0       -2.463082    0.796382   -0.002732
 ---------------------------------------------------------------------
 Rotational constants (GHZ):         471.9962697           3.3576184           3.3339063
 Standard basis: 6-31G (6D, 7F)
 There are    31 symmetry adapted cartesian basis functions of A   symmetry.
 There are    31 symmetry adapted basis functions of A   symmetry.
    31 basis functions,    74 primitive gaussians,    31 cartesian basis functions
    12 alpha electrons       12 beta electrons
       nuclear repulsion energy        52.5295121661 Hartrees.
 NAtoms=    5 NActive=    5 NUniq=    5 SFac= 1.00D+00 NAtFMM=   60 NAOKFM=F Big=F
 Integral buffers will be    131072 words long.
 Raffenetti 2 integral format.
 Two-electron integral symmetry is turned on.
 One-electron integrals computed using PRISM.
 NBasis=    31 RedAO= T EigKep=  2.16D-02  NBF=    31
 NBsUse=    31 1.00D-06 EigRej= -1.00D+00 NBFU=    31
 Initial guess from the checkpoint file:  "C:\Calculation\20230510.2\(CO)1(H2O)1\(CO)1(H2O)1(2).1.chk"
 B after Tr=     0.000000    0.000000    0.000000
         Rot=    1.000000    0.000270   -0.000001   -0.000094 Ang=   0.03 deg.
 Keep R1 ints in memory in canonical form, NReq=987505.
 Requested convergence on RMS density matrix=1.00D-08 within 128 cycles.
 Requested convergence on MAX density matrix=1.00D-06.
 Requested convergence on             energy=1.00D-06.
 No special actions if energy rises.
 SCF Done:  E(RB3LYP) =  -189.649059177     A.U. after    9 cycles
            NFock=  9  Conv=0.28D-08     -V/T= 2.0055
 Calling FoFJK, ICntrl=      2127 FMM=F ISym2X=0 I1Cent= 0 IOpClX= 0 NMat=1 NMatS=1 NMatT=0.
 ***** Axes restored to original set *****
 -------------------------------------------------------------------
 Center     Atomic                   Forces (Hartrees/Bohr)
 Number     Number              X              Y              Z
 -------------------------------------------------------------------
      1        6          -0.000154644    0.000024014    0.000001965
      2        8           0.000153557   -0.000025762   -0.000001235
      3        8          -0.000003087   -0.000023225    0.000002494
      4        1           0.000004000    0.000010366   -0.000003548
      5        1           0.000000174    0.000014606    0.000000325
 -------------------------------------------------------------------
 Cartesian Forces:  Max     0.000154644 RMS     0.000057530

 GradGradGradGradGradGradGradGradGradGradGradGradGradGradGradGradGradGrad
 Berny optimization.
 Using GEDIIS/GDIIS optimizer.
 FormGI is forming the generalized inverse of G from B-inverse, IUseBI=4.
 Internal  Forces:  Max     0.000156498 RMS     0.000052530
 Search for a local minimum.
 Step number   4 out of a maximum of   20
 All quantities printed in internal units (Hartrees-Bohrs-Radians)
 Mixed Optimization -- En-DIIS/RFO-DIIS
 Swapping is turned off.
 Update second derivatives using D2CorX and points    1    2    3    4
 DE= -4.16D-07 DEPred=-3.77D-07 R= 1.11D+00
 Trust test= 1.11D+00 RLast= 1.65D-02 DXMaxT set to 3.00D-01
 The second derivative matrix:
                          R1        R2        R3        R4        A1
           R1           1.52538
           R2           0.00191   0.03006
           R3          -0.03290  -0.00022   0.53431
           R4          -0.05216  -0.00037   0.01412   0.54234
           A1          -0.02073  -0.00075   0.00961   0.01143   0.16852
           A2           0.00215   0.00042  -0.00077  -0.00096  -0.00059
           A3           0.00261   0.00012   0.00047   0.00023   0.00062
           A4          -0.00156  -0.00565  -0.00026  -0.00013  -0.00138
           A5          -0.00184  -0.00087   0.00061   0.00075   0.00033
                          A2        A3        A4        A5
           A2           0.00231
           A3          -0.00004   0.00245
           A4           0.00068   0.00007   0.00472
           A5           0.00007   0.00006  -0.00135   0.01339
 ITU=  0  0  1  0
     Eigenvalues ---    0.00188   0.00245   0.00369   0.01359   0.03128
     Eigenvalues ---    0.16771   0.52361   0.54963   1.52963
 En-DIIS/RFO-DIIS/Sim-DIIS IScMMF=       -3 using points:     4    3    2    1
 RFO step:  Lambda=-3.01155678D-08.
 DidBck=F Rises=F RFO-DIIS coefs:    0.93403    0.62846   -0.59780    0.03532
 Iteration  1 RMS(Cart)=  0.00113567 RMS(Int)=  0.00000075
 Iteration  2 RMS(Cart)=  0.00000094 RMS(Int)=  0.00000000
 Variable       Old X    -DE/DX   Delta X   Delta X   Delta X     New X
                                 (Linear)    (Quad)   (Total)
    R1        2.18638  -0.00016   0.00006  -0.00014  -0.00008   2.18630
    R2        4.08141   0.00000   0.00045  -0.00013   0.00031   4.08172
    R3        1.84350   0.00000  -0.00005   0.00005   0.00000   1.84350
    R4        1.84263   0.00001  -0.00006   0.00007   0.00001   1.84264
    A1        1.89304  -0.00001  -0.00011   0.00006  -0.00004   1.89300
    A2        2.90058   0.00000  -0.00017   0.00002  -0.00015   2.90043
    A3        3.14831   0.00000  -0.00085  -0.00003  -0.00088   3.14744
    A4        3.06900   0.00001   0.00166   0.00001   0.00166   3.07066
    A5        3.13640   0.00000   0.00009   0.00028   0.00037   3.13678
         Item               Value     Threshold  Converged?
 Maximum Force            0.000156     0.000450     YES
 RMS     Force            0.000053     0.000300     YES
 Maximum Displacement     0.002006     0.001800     NO 
 RMS     Displacement     0.001135     0.001200     YES
 Predicted change in Energy=-1.477605D-08
 GradGradGradGradGradGradGradGradGradGradGradGradGradGradGradGradGradGrad

                          Input orientation:                          
 ---------------------------------------------------------------------
 Center     Atomic      Atomic             Coordinates (Angstroms)
 Number     Number       Type             X           Y           Z
 ---------------------------------------------------------------------
      1          6           0        2.137528   -0.081890   -0.001015
      2          8           0        0.993750    0.092045    0.004408
      3          8           0       -2.132765   -0.121432   -0.001004
      4          1           0       -1.157412   -0.102620    0.002037
      5          1           0       -2.459349    0.797240    0.012034
 ---------------------------------------------------------------------
                    Distance matrix (angstroms):
                    1          2          3          4          5
     1  C    0.000000
     2  O    1.156940   0.000000
     3  O    4.270476   3.133799   0.000000
     4  H    3.295007   2.159954   0.975538   0.000000
     5  H    4.680205   3.524380   0.975083   1.582684   0.000000
 Stoichiometry    CH2O2
 Framework group  C1[X(CH2O2)]
 Deg. of freedom     9
 Full point group                 C1      NOp   1
 Largest Abelian subgroup         C1      NOp   1
 Largest concise Abelian subgroup C1      NOp   1
                         Standard orientation:                         
 ---------------------------------------------------------------------
 Center     Atomic      Atomic             Coordinates (Angstroms)
 Number     Number       Type             X           Y           Z
 ---------------------------------------------------------------------
      1          6           0        2.133605   -0.078187   -0.001403
      2          8           0        0.989632    0.094523    0.001318
      3          8           0       -2.136640   -0.122542   -0.000291
      4          1           0       -1.161309   -0.102582    0.002339
      5          1           0       -2.464261    0.795852   -0.002136
 ---------------------------------------------------------------------
 Rotational constants (GHZ):         471.6398674           3.3572525           3.3335262
 Standard basis: 6-31G (6D, 7F)
 There are    31 symmetry adapted cartesian basis functions of A   symmetry.
 There are    31 symmetry adapted basis functions of A   symmetry.
    31 basis functions,    74 primitive gaussians,    31 cartesian basis functions
    12 alpha electrons       12 beta electrons
       nuclear repulsion energy        52.5286124369 Hartrees.
 NAtoms=    5 NActive=    5 NUniq=    5 SFac= 1.00D+00 NAtFMM=   60 NAOKFM=F Big=F
 Integral buffers will be    131072 words long.
 Raffenetti 2 integral format.
 Two-electron integral symmetry is turned on.
 One-electron integrals computed using PRISM.
 NBasis=    31 RedAO= T EigKep=  2.16D-02  NBF=    31
 NBsUse=    31 1.00D-06 EigRej= -1.00D+00 NBFU=    31
 Initial guess from the checkpoint file:  "C:\Calculation\20230510.2\(CO)1(H2O)1\(CO)1(H2O)1(2).1.chk"
 B after Tr=     0.000000    0.000000    0.000000
         Rot=    1.000000    0.000012    0.000000   -0.000010 Ang=   0.00 deg.
 Keep R1 ints in memory in canonical form, NReq=987505.
 Requested convergence on RMS density matrix=1.00D-08 within 128 cycles.
 Requested convergence on MAX density matrix=1.00D-06.
 Requested convergence on             energy=1.00D-06.
 No special actions if energy rises.
 SCF Done:  E(RB3LYP) =  -189.649059194     A.U. after    8 cycles
            NFock=  8  Conv=0.24D-08     -V/T= 2.0055
 Calling FoFJK, ICntrl=      2127 FMM=F ISym2X=0 I1Cent= 0 IOpClX= 0 NMat=1 NMatS=1 NMatT=0.
 ***** Axes restored to original set *****
 -------------------------------------------------------------------
 Center     Atomic                   Forces (Hartrees/Bohr)
 Number     Number              X              Y              Z
 -------------------------------------------------------------------
      1        6          -0.000066343    0.000010077    0.000000623
      2        8           0.000062640   -0.000010484    0.000000685
      3        8          -0.000003015   -0.000010372    0.000003333
      4        1           0.000010049    0.000001325   -0.000004615
      5        1          -0.000003331    0.000009455   -0.000000026
 -------------------------------------------------------------------
 Cartesian Forces:  Max     0.000066343 RMS     0.000024344

 GradGradGradGradGradGradGradGradGradGradGradGradGradGradGradGradGradGrad
 Berny optimization.
 Using GEDIIS/GDIIS optimizer.
 FormGI is forming the generalized inverse of G from B-inverse, IUseBI=4.
 Internal  Forces:  Max     0.000067099 RMS     0.000022789
 Search for a local minimum.
 Step number   5 out of a maximum of   20
 All quantities printed in internal units (Hartrees-Bohrs-Radians)
 Mixed Optimization -- En-DIIS/RFO-DIIS
 Swapping is turned off.
 Update second derivatives using D2CorX and points    1    2    3    4    5
 DE= -1.75D-08 DEPred=-1.48D-08 R= 1.18D+00
 Trust test= 1.18D+00 RLast= 1.95D-03 DXMaxT set to 3.00D-01
 The second derivative matrix:
                          R1        R2        R3        R4        A1
           R1           1.23485
           R2          -0.01184   0.03061
           R3          -0.01565  -0.00102   0.53776
           R4          -0.01658  -0.00005   0.01608   0.54168
           A1          -0.02824  -0.00238   0.01399   0.01592   0.17178
           A2           0.00066   0.00063  -0.00110  -0.00114  -0.00098
           A3          -0.00316  -0.00019   0.00128   0.00139   0.00092
           A4           0.00501  -0.00471  -0.00186  -0.00193  -0.00215
           A5           0.01222  -0.00104   0.00093   0.00006   0.00168
                          A2        A3        A4        A5
           A2           0.00237
           A3          -0.00008   0.00242
           A4           0.00087   0.00010   0.00479
           A5          -0.00005   0.00035  -0.00224   0.01318
 ITU=  0  0  0  1  0
     Eigenvalues ---    0.00177   0.00241   0.00387   0.01362   0.03130
     Eigenvalues ---    0.17003   0.52352   0.55624   1.23666
 En-DIIS/RFO-DIIS/Sim-DIIS IScMMF=       -3 using points:     5    4    3    2    1
 RFO step:  Lambda=-4.32294218D-09.
 DIIS inversion failure, remove point   5.
 DIIS inversion failure, remove point   4.
 RFO-DIIS uses    3 points instead of    5
 DidBck=F Rises=F RFO-DIIS coefs:    1.32786   -0.32229   -0.00558    0.00000    0.00000
 Iteration  1 RMS(Cart)=  0.00043374 RMS(Int)=  0.00000014
 Iteration  2 RMS(Cart)=  0.00000016 RMS(Int)=  0.00000000
 Variable       Old X    -DE/DX   Delta X   Delta X   Delta X     New X
                                 (Linear)    (Quad)   (Total)
    R1        2.18630  -0.00007  -0.00003  -0.00004  -0.00006   2.18624
    R2        4.08172   0.00000   0.00012  -0.00017  -0.00005   4.08167
    R3        1.84350   0.00001   0.00000   0.00001   0.00001   1.84351
    R4        1.84264   0.00001   0.00000   0.00001   0.00002   1.84266
    A1        1.89300   0.00000  -0.00001   0.00000  -0.00001   1.89299
    A2        2.90043   0.00000  -0.00009  -0.00015  -0.00024   2.90019
    A3        3.14744   0.00000  -0.00030  -0.00015  -0.00045   3.14698
    A4        3.07066   0.00000   0.00062  -0.00013   0.00049   3.07116
    A5        3.13678   0.00000   0.00013   0.00030   0.00043   3.13721
         Item               Value     Threshold  Converged?
 Maximum Force            0.000067     0.000450     YES
 RMS     Force            0.000023     0.000300     YES
 Maximum Displacement     0.000638     0.001800     YES
 RMS     Displacement     0.000434     0.001200     YES
 Predicted change in Energy=-3.580749D-09
 Optimization completed.
    -- Stationary point found.
                           ----------------------------
                           !   Optimized Parameters   !
                           ! (Angstroms and Degrees)  !
 --------------------------                            --------------------------
 ! Name  Definition              Value          Derivative Info.                !
 --------------------------------------------------------------------------------
 ! R1    R(1,2)                  1.1569         -DE/DX =   -0.0001              !
 ! R2    R(2,4)                  2.16           -DE/DX =    0.0                 !
 ! R3    R(3,4)                  0.9755         -DE/DX =    0.0                 !
 ! R4    R(3,5)                  0.9751         -DE/DX =    0.0                 !
 ! A1    A(4,3,5)              108.4608         -DE/DX =    0.0                 !
 ! A2    L(1,2,4,-3,-1)        166.1824         -DE/DX =    0.0                 !
 ! A3    L(1,2,4,-2,-2)        180.3348         -DE/DX =    0.0                 !
 ! A4    L(2,4,3,5,-1)         175.936          -DE/DX =    0.0                 !
 ! A5    L(2,4,3,5,-2)         179.724          -DE/DX =    0.0                 !
 --------------------------------------------------------------------------------
 GradGradGradGradGradGradGradGradGradGradGradGradGradGradGradGradGradGrad

                          Input orientation:                          
 ---------------------------------------------------------------------
 Center     Atomic      Atomic             Coordinates (Angstroms)
 Number     Number       Type             X           Y           Z
 ---------------------------------------------------------------------
      1          6           0        2.137528   -0.081890   -0.001015
      2          8           0        0.993750    0.092045    0.004408
      3          8           0       -2.132765   -0.121432   -0.001004
      4          1           0       -1.157412   -0.102620    0.002037
      5          1           0       -2.459349    0.797240    0.012034
 ---------------------------------------------------------------------
                    Distance matrix (angstroms):
                    1          2          3          4          5
     1  C    0.000000
     2  O    1.156940   0.000000
     3  O    4.270476   3.133799   0.000000
     4  H    3.295007   2.159954   0.975538   0.000000
     5  H    4.680205   3.524380   0.975083   1.582684   0.000000
 Stoichiometry    CH2O2
 Framework group  C1[X(CH2O2)]
 Deg. of freedom     9
 Full point group                 C1      NOp   1
 Largest Abelian subgroup         C1      NOp   1
 Largest concise Abelian subgroup C1      NOp   1
                         Standard orientation:                         
 ---------------------------------------------------------------------
 Center     Atomic      Atomic             Coordinates (Angstroms)
 Number     Number       Type             X           Y           Z
 ---------------------------------------------------------------------
      1          6           0        2.133605   -0.078187   -0.001403
      2          8           0        0.989632    0.094523    0.001318
      3          8           0       -2.136640   -0.122542   -0.000291
      4          1           0       -1.161309   -0.102582    0.002339
      5          1           0       -2.464261    0.795852   -0.002136
 ---------------------------------------------------------------------
 Rotational constants (GHZ):         471.6398674           3.3572525           3.3335262

 **********************************************************************

            Population analysis using the SCF Density.

 **********************************************************************

 Orbital symmetries:
       Occupied  (A) (A) (A) (A) (A) (A) (A) (A) (A) (A) (A) (A)
       Virtual   (A) (A) (A) (A) (A) (A) (A) (A) (A) (A) (A) (A)
                 (A) (A) (A) (A) (A) (A) (A)
 The electronic state is 1-A.
 Alpha  occ. eigenvalues --  -19.28652 -19.11972 -10.35188  -1.21004  -0.99342
 Alpha  occ. eigenvalues --   -0.60082  -0.51526  -0.49549  -0.49519  -0.39146
 Alpha  occ. eigenvalues --   -0.33543  -0.27754
 Alpha virt. eigenvalues --   -0.06118  -0.06084   0.07303   0.16831   0.26355
 Alpha virt. eigenvalues --    0.49315   0.49327   0.57248   0.72738   0.83663
 Alpha virt. eigenvalues --    0.86797   0.87601   0.88270   0.91342   0.95284
 Alpha virt. eigenvalues --    0.98654   1.18389   1.54319   1.63315
          Condensed to atoms (all electrons):
               1          2          3          4          5
     1  C    5.400750   0.351650   0.000090   0.000890   0.000012
     2  O    0.351650   7.858167  -0.002725   0.019064   0.000099
     3  O    0.000090  -0.002725   8.262318   0.241385   0.242824
     4  H    0.000890   0.019064   0.241385   0.400744  -0.033966
     5  H    0.000012   0.000099   0.242824  -0.033966   0.439375
 Mulliken charges:
               1
     1  C    0.246608
     2  O   -0.226255
     3  O   -0.743891
     4  H    0.371883
     5  H    0.351655
 Sum of Mulliken charges =   0.00000
 Mulliken charges with hydrogens summed into heavy atoms:
               1
     1  C    0.246608
     2  O   -0.226255
     3  O   -0.020353
 Electronic spatial extent (au):  <R**2>=            326.5856
 Charge=              0.0000 electrons
 Dipole moment (field-independent basis, Debye):
    X=              1.9374    Y=              1.9162    Z=              0.0011  Tot=              2.7250
 Quadrupole moment (field-independent basis, Debye-Ang):
   XX=            -22.3963   YY=            -15.6685   ZZ=            -17.1211
   XY=             -4.8057   XZ=              0.0085   YZ=             -0.0058
 Traceless Quadrupole moment (field-independent basis, Debye-Ang):
   XX=             -4.0010   YY=              2.7268   ZZ=              1.2742
   XY=             -4.8057   XZ=              0.0085   YZ=             -0.0058
 Octapole moment (field-independent basis, Debye-Ang**2):
  XXX=             -7.8047  YYY=              1.9277  ZZZ=              0.0076  XYY=             -3.9884
  XXY=             14.4925  XXZ=              0.0040  XZZ=             -0.4003  YZZ=              0.4446
  YYZ=              0.0007  XYZ=              0.0087
 Hexadecapole moment (field-independent basis, Debye-Ang**3):
 XXXX=           -419.5437 YYYY=            -14.6139 ZZZZ=            -13.1092 XXXY=            -28.5267
 XXXZ=              0.1513 YYYX=             -3.1152 YYYZ=             -0.0050 ZZZX=              0.0161
 ZZZY=             -0.0028 XXYY=            -57.5764 XXZZ=            -65.0004 YYZZ=             -4.7716
 XXYZ=             -0.0298 YYXZ=              0.0106 ZZXY=             -0.5042
 N-N= 5.252861243694D+01 E-N=-5.513328080870D+02  KE= 1.886189434860D+02
 Unable to Open any file for archive entry.
 1|1|UNPC-TABISEAL|FOpt|RB3LYP|6-31G|C1H2O2|17108|12-Jun-2023|0||# opt 
 freq b3lyp/6-31g geom=connectivity||Title Card Required||0,1|C,2.13752
 81045,-0.0818903452,-0.0010153267|O,0.9937501087,0.0920453059,0.004407
 52|O,-2.132764652,-0.1214320446,-0.0010039253|H,-1.1574123475,-0.10261
 99826,0.0020369275|H,-2.4593492138,0.7972400665,0.0120338046||Version=
 EM64W-G16RevC.01|State=1-A|HF=-189.6490592|RMSD=2.406e-009|RMSF=2.434e
 -005|Dipole=0.7630994,0.7529082,0.0127493|Quadrupole=-2.9826868,2.0352
 282,0.9474586,-3.5669092,-0.0520018,0.0129964|PG=C01 [X(C1H2O2)]||@
 The archive entry for this job was punched.


 COMMON SENSE IS NOT SO COMMON.   -- VOLTAIRE
 Job cpu time:       0 days  0 hours  0 minutes 26.0 seconds.
 Elapsed time:       0 days  0 hours  0 minutes 17.3 seconds.
 File lengths (MBytes):  RWF=      6 Int=      0 D2E=      0 Chk=      2 Scr=      1
 Normal termination of Gaussian 16 at Mon Jun 12 20:01:02 2023.
 Link1:  Proceeding to internal job step number  2.
 -----------------------------------------------------------------
 #N Geom=AllCheck Guess=TCheck SCRF=Check GenChk RB3LYP/6-31G Freq
 -----------------------------------------------------------------
 1/10=4,29=7,30=1,38=1,40=1/1,3;
 2/12=2,40=1/2;
 3/5=1,6=6,11=2,14=-4,25=1,30=1,70=2,71=2,74=-5,116=1,140=1/1,2,3;
 4/5=101/1;
 5/5=2,38=6,98=1/2;
 8/6=4,10=90,11=11/1;
 11/6=1,8=1,9=11,15=111,16=1/1,2,10;
 10/6=1/2;
 6/7=2,8=2,9=2,10=2,28=1/1;
 7/8=1,10=1,25=1/1,2,3,16;
 1/10=4,30=1/3;
 99//99;
 Structure from the checkpoint file:  "C:\Calculation\20230510.2\(CO)1(H2O)1\(CO)1(H2O)1(2).1.chk"
 -------------------
 Title Card Required
 -------------------
 Charge =  0 Multiplicity = 1
 Redundant internal coordinates found in file.  (old form).
 C,0,2.1375281045,-0.0818903452,-0.0010153267
 O,0,0.9937501087,0.0920453059,0.00440752
 O,0,-2.132764652,-0.1214320446,-0.0010039253
 H,0,-1.1574123475,-0.1026199826,0.0020369275
 H,0,-2.4593492138,0.7972400665,0.0120338046
 Recover connectivity data from disk.

 GradGradGradGradGradGradGradGradGradGradGradGradGradGradGradGradGradGrad
 Berny optimization.
 Initialization pass.
                           ----------------------------
                           !    Initial Parameters    !
                           ! (Angstroms and Degrees)  !
 --------------------------                            --------------------------
 ! Name  Definition              Value          Derivative Info.                !
 --------------------------------------------------------------------------------
 ! R1    R(1,2)                  1.1569         calculate D2E/DX2 analytically  !
 ! R2    R(2,4)                  2.16           calculate D2E/DX2 analytically  !
 ! R3    R(3,4)                  0.9755         calculate D2E/DX2 analytically  !
 ! R4    R(3,5)                  0.9751         calculate D2E/DX2 analytically  !
 ! A1    A(4,3,5)              108.4608         calculate D2E/DX2 analytically  !
 ! A2    L(1,2,4,-3,-1)        166.1824         calculate D2E/DX2 analytically  !
 ! A3    L(1,2,4,-2,-2)        180.3348         calculate D2E/DX2 analytically  !
 ! A4    L(2,4,3,5,-1)         175.936          calculate D2E/DX2 analytically  !
 ! A5    L(2,4,3,5,-2)         179.724          calculate D2E/DX2 analytically  !
 --------------------------------------------------------------------------------
 Trust Radius=3.00D-01 FncErr=1.00D-07 GrdErr=1.00D-07 EigMax=2.50D+02 EigMin=1.00D-04
 Number of steps in this run=      2 maximum allowed number of steps=      2.
 GradGradGradGradGradGradGradGradGradGradGradGradGradGradGradGradGradGrad

                          Input orientation:                          
 ---------------------------------------------------------------------
 Center     Atomic      Atomic             Coordinates (Angstroms)
 Number     Number       Type             X           Y           Z
 ---------------------------------------------------------------------
      1          6           0        2.137528   -0.081890   -0.001015
      2          8           0        0.993750    0.092045    0.004408
      3          8           0       -2.132765   -0.121432   -0.001004
      4          1           0       -1.157412   -0.102620    0.002037
      5          1           0       -2.459349    0.797240    0.012034
 ---------------------------------------------------------------------
                    Distance matrix (angstroms):
                    1          2          3          4          5
     1  C    0.000000
     2  O    1.156940   0.000000
     3  O    4.270476   3.133799   0.000000
     4  H    3.295007   2.159954   0.975538   0.000000
     5  H    4.680205   3.524380   0.975083   1.582684   0.000000
 Stoichiometry    CH2O2
 Framework group  C1[X(CH2O2)]
 Deg. of freedom     9
 Full point group                 C1      NOp   1
 Largest Abelian subgroup         C1      NOp   1
 Largest concise Abelian subgroup C1      NOp   1
                         Standard orientation:                         
 ---------------------------------------------------------------------
 Center     Atomic      Atomic             Coordinates (Angstroms)
 Number     Number       Type             X           Y           Z
 ---------------------------------------------------------------------
      1          6           0        2.133605   -0.078187   -0.001403
      2          8           0        0.989632    0.094523    0.001318
      3          8           0       -2.136640   -0.122542   -0.000291
      4          1           0       -1.161309   -0.102582    0.002339
      5          1           0       -2.464261    0.795852   -0.002136
 ---------------------------------------------------------------------
 Rotational constants (GHZ):         471.6398674           3.3572525           3.3335262
 Standard basis: 6-31G (6D, 7F)
 There are    31 symmetry adapted cartesian basis functions of A   symmetry.
 There are    31 symmetry adapted basis functions of A   symmetry.
    31 basis functions,    74 primitive gaussians,    31 cartesian basis functions
    12 alpha electrons       12 beta electrons
       nuclear repulsion energy        52.5286124369 Hartrees.
 NAtoms=    5 NActive=    5 NUniq=    5 SFac= 1.00D+00 NAtFMM=   60 NAOKFM=F Big=F
 Integral buffers will be    131072 words long.
 Raffenetti 2 integral format.
 Two-electron integral symmetry is turned on.
 One-electron integrals computed using PRISM.
 NBasis=    31 RedAO= T EigKep=  2.16D-02  NBF=    31
 NBsUse=    31 1.00D-06 EigRej= -1.00D+00 NBFU=    31
 Initial guess from the checkpoint file:  "C:\Calculation\20230510.2\(CO)1(H2O)1\(CO)1(H2O)1(2).1.chk"
 B after Tr=     0.000000    0.000000    0.000000
         Rot=    1.000000    0.000000    0.000000    0.000000 Ang=   0.00 deg.
 Keep R1 ints in memory in canonical form, NReq=987505.
 Requested convergence on RMS density matrix=1.00D-08 within 128 cycles.
 Requested convergence on MAX density matrix=1.00D-06.
 Requested convergence on             energy=1.00D-06.
 No special actions if energy rises.
 SCF Done:  E(RB3LYP) =  -189.649059194     A.U. after    1 cycles
            NFock=  1  Conv=0.37D-09     -V/T= 2.0055
 DoSCS=F DFT=T ScalE2(SS,OS)=  1.000000  1.000000
 Range of M.O.s used for correlation:     1    31
 NBasis=    31 NAE=    12 NBE=    12 NFC=     0 NFV=     0
 NROrb=     31 NOA=    12 NOB=    12 NVA=    19 NVB=    19
 Symmetrizing basis deriv contribution to polar:
 IMax=3 JMax=2 DiffMx= 0.00D+00
 G2DrvN: will do     6 centers at a time, making    1 passes.
 Calling FoFCou, ICntrl=  3107 FMM=F I1Cent=   0 AccDes= 0.00D+00.
 End of G2Drv F.D. properties file   721 does not exist.
 End of G2Drv F.D. properties file   722 does not exist.
 End of G2Drv F.D. properties file   788 does not exist.
          IDoAtm=11111
          Differentiating once with respect to electric field.
                with respect to dipole field.
          Differentiating once with respect to nuclear coordinates.
 Keep R1 ints in memory in canonical form, NReq=988635.
          There are    18 degrees of freedom in the 1st order CPHF.  IDoFFX=6 NUNeed=     3.
     15 vectors produced by pass  0 Test12= 1.27D-15 5.56D-09 XBig12= 1.66D+01 2.32D+00.
 AX will form    15 AO Fock derivatives at one time.
     15 vectors produced by pass  1 Test12= 1.27D-15 5.56D-09 XBig12= 1.32D+01 1.10D+00.
     15 vectors produced by pass  2 Test12= 1.27D-15 5.56D-09 XBig12= 6.94D-02 7.19D-02.
     15 vectors produced by pass  3 Test12= 1.27D-15 5.56D-09 XBig12= 8.26D-05 3.19D-03.
     13 vectors produced by pass  4 Test12= 1.27D-15 5.56D-09 XBig12= 4.42D-08 6.03D-05.
      5 vectors produced by pass  5 Test12= 1.27D-15 5.56D-09 XBig12= 8.71D-12 8.34D-07.
      1 vectors produced by pass  6 Test12= 1.27D-15 5.56D-09 XBig12= 2.10D-15 9.88D-09.
 InvSVY:  IOpt=1 It=  1 EMax= 1.55D-15
 Solved reduced A of dimension    79 with    15 vectors.
 Isotropic polarizability for W=    0.000000       14.57 Bohr**3.
 End of Minotr F.D. properties file   721 does not exist.
 End of Minotr F.D. properties file   722 does not exist.
 End of Minotr F.D. properties file   788 does not exist.

 **********************************************************************

            Population analysis using the SCF Density.

 **********************************************************************

 Orbital symmetries:
       Occupied  (A) (A) (A) (A) (A) (A) (A) (A) (A) (A) (A) (A)
       Virtual   (A) (A) (A) (A) (A) (A) (A) (A) (A) (A) (A) (A)
                 (A) (A) (A) (A) (A) (A) (A)
 The electronic state is 1-A.
 Alpha  occ. eigenvalues --  -19.28652 -19.11972 -10.35188  -1.21004  -0.99342
 Alpha  occ. eigenvalues --   -0.60082  -0.51526  -0.49549  -0.49519  -0.39146
 Alpha  occ. eigenvalues --   -0.33543  -0.27754
 Alpha virt. eigenvalues --   -0.06118  -0.06084   0.07303   0.16831   0.26355
 Alpha virt. eigenvalues --    0.49315   0.49327   0.57248   0.72738   0.83663
 Alpha virt. eigenvalues --    0.86797   0.87601   0.88270   0.91342   0.95284
 Alpha virt. eigenvalues --    0.98654   1.18389   1.54319   1.63315
          Condensed to atoms (all electrons):
               1          2          3          4          5
     1  C    5.400750   0.351650   0.000090   0.000890   0.000012
     2  O    0.351650   7.858167  -0.002725   0.019064   0.000099
     3  O    0.000090  -0.002725   8.262318   0.241385   0.242824
     4  H    0.000890   0.019064   0.241385   0.400744  -0.033966
     5  H    0.000012   0.000099   0.242824  -0.033966   0.439375
 Mulliken charges:
               1
     1  C    0.246608
     2  O   -0.226255
     3  O   -0.743891
     4  H    0.371883
     5  H    0.351655
 Sum of Mulliken charges =   0.00000
 Mulliken charges with hydrogens summed into heavy atoms:
               1
     1  C    0.246608
     2  O   -0.226255
     3  O   -0.020353
 APT charges:
               1
     1  C    0.290222
     2  O   -0.315677
     3  O   -0.543720
     4  H    0.319305
     5  H    0.249869
 Sum of APT charges =   0.00000
 APT charges with hydrogens summed into heavy atoms:
               1
     1  C    0.290222
     2  O   -0.315677
     3  O    0.025454
 Electronic spatial extent (au):  <R**2>=            326.5856
 Charge=              0.0000 electrons
 Dipole moment (field-independent basis, Debye):
    X=              1.9374    Y=              1.9162    Z=              0.0011  Tot=              2.7250
 Quadrupole moment (field-independent basis, Debye-Ang):
   XX=            -22.3963   YY=            -15.6685   ZZ=            -17.1211
   XY=             -4.8057   XZ=              0.0085   YZ=             -0.0058
 Traceless Quadrupole moment (field-independent basis, Debye-Ang):
   XX=             -4.0010   YY=              2.7268   ZZ=              1.2742
   XY=             -4.8057   XZ=              0.0085   YZ=             -0.0058
 Octapole moment (field-independent basis, Debye-Ang**2):
  XXX=             -7.8047  YYY=              1.9277  ZZZ=              0.0076  XYY=             -3.9884
  XXY=             14.4925  XXZ=              0.0040  XZZ=             -0.4003  YZZ=              0.4446
  YYZ=              0.0007  XYZ=              0.0087
 Hexadecapole moment (field-independent basis, Debye-Ang**3):
 XXXX=           -419.5437 YYYY=            -14.6139 ZZZZ=            -13.1092 XXXY=            -28.5267
 XXXZ=              0.1513 YYYX=             -3.1152 YYYZ=             -0.0050 ZZZX=              0.0161
 ZZZY=             -0.0028 XXYY=            -57.5764 XXZZ=            -65.0004 YYZZ=             -4.7716
 XXYZ=             -0.0298 YYXZ=              0.0106 ZZXY=             -0.5042
 N-N= 5.252861243694D+01 E-N=-5.513328080935D+02  KE= 1.886189434951D+02
  Exact polarizability:      21.949      -2.293      12.990       0.000      -0.006       8.761
 Approx polarizability:      33.774      -3.937      16.175      -0.022      -0.004      10.598
 Calling FoFJK, ICntrl=    100127 FMM=F ISym2X=0 I1Cent= 0 IOpClX= 0 NMat=1 NMatS=1 NMatT=0.
 Full mass-weighted force constant matrix:
 Low frequencies ---  -12.4431   -0.0013   -0.0013   -0.0008    2.2016    2.5150
 Low frequencies ---   41.5250   45.2163  114.3828
 Diagonal vibrational polarizability:
      173.6493197      60.0972775     279.2728615
 Harmonic frequencies (cm**-1), IR intensities (KM/Mole), Raman scattering
 activities (A**4/AMU), depolarization ratios for plane and unpolarized
 incident light, reduced masses (AMU), force constants (mDyne/A),
 and normal coordinates:
                      1                      2                      3
                      A                      A                      A
 Frequencies --     41.4032                45.2100               114.3828
 Red. masses --      2.8747                 7.3402                 6.4133
 Frc consts  --      0.0029                 0.0088                 0.0494
 IR Inten    --     12.6227                10.5161                 4.4335
  Atom  AN      X      Y      Z        X      Y      Z        X      Y      Z
     1   6     0.00   0.00  -0.27    -0.12  -0.48   0.00    -0.29   0.03   0.00
     2   8     0.00   0.00   0.26     0.02   0.47   0.00    -0.30  -0.04   0.00
     3   8     0.00   0.00  -0.03     0.09  -0.12   0.00     0.45   0.02   0.00
     4   1     0.00   0.00   0.38     0.08   0.45   0.00     0.45  -0.16   0.00
     5   1     0.00   0.00  -0.84    -0.45  -0.31   0.02     0.62   0.08   0.00
                      4                      5                      6
                      A                      A                      A
 Frequencies --    186.7988               287.9213              1630.9457
 Red. masses --      1.1432                 1.0784                 1.0893
 Frc consts  --      0.0235                 0.0527                 1.7072
 IR Inten    --    109.9511               249.4229                76.3520
  Atom  AN      X      Y      Z        X      Y      Z        X      Y      Z
     1   6     0.00   0.04   0.00     0.00   0.00   0.03     0.00   0.00   0.00
     2   8    -0.01  -0.07   0.00     0.00   0.00  -0.05     0.00   0.00   0.00
     3   8     0.05   0.01   0.00     0.00   0.00  -0.04    -0.04  -0.06   0.00
     4   1     0.04   0.72   0.00     0.00   0.00   0.99     0.02   0.72   0.00
     5   1    -0.65  -0.24   0.00     0.00   0.00   0.14     0.63   0.27   0.00
                      7                      8                      9
                      A                      A                      A
 Frequencies --   2057.4080              3634.1949              3793.2870
 Red. masses --     13.4396                 1.0368                 1.0852
 Frc consts  --     33.5181                 8.0676                 9.1999
 IR Inten    --     95.3873                14.5522                56.1009
  Atom  AN      X      Y      Z        X      Y      Z        X      Y      Z
     1   6     0.79  -0.12   0.00     0.00   0.00   0.00     0.00   0.00   0.00
     2   8    -0.59   0.09   0.00     0.00   0.00   0.00     0.00   0.00   0.00
     3   8     0.00   0.00   0.00    -0.02  -0.04   0.00    -0.06   0.04   0.00
     4   1     0.00   0.01   0.00     0.67  -0.06   0.00     0.74   0.01   0.00
     5   1     0.00   0.00   0.00    -0.32   0.66   0.00     0.23  -0.63   0.00

 -------------------
 - Thermochemistry -
 -------------------
 Temperature   298.150 Kelvin.  Pressure   1.00000 Atm.
 Atom     1 has atomic number  6 and mass  12.00000
 Atom     2 has atomic number  8 and mass  15.99491
 Atom     3 has atomic number  8 and mass  15.99491
 Atom     4 has atomic number  1 and mass   1.00783
 Atom     5 has atomic number  1 and mass   1.00783
 Molecular mass:    46.00548 amu.
 Principal axes and moments of inertia in atomic units:
                           1         2         3
     Eigenvalues --     3.82652 537.56493 541.39103
           X            0.99992  -0.01258   0.00004
           Y            0.01258   0.99992  -0.00182
           Z           -0.00002   0.00182   1.00000
 This molecule is an asymmetric top.
 Rotational symmetry number  1.
 Rotational temperatures (Kelvin)     22.63514     0.16112     0.15998
 Rotational constants (GHZ):         471.63987     3.35725     3.33353
 Zero-point vibrational energy      70529.1 (Joules/Mol)
                                   16.85687 (Kcal/Mol)
 Warning -- explicit consideration of   5 degrees of freedom as
           vibrations may cause significant error
 Vibrational temperatures:     59.57    65.05   164.57   268.76   414.25
          (Kelvin)           2346.57  2960.15  5228.80  5457.69
 
 Zero-point correction=                           0.026863 (Hartree/Particle)
 Thermal correction to Energy=                    0.033122
 Thermal correction to Enthalpy=                  0.034066
 Thermal correction to Gibbs Free Energy=        -0.002137
 Sum of electronic and zero-point Energies=           -189.622196
 Sum of electronic and thermal Energies=              -189.615938
 Sum of electronic and thermal Enthalpies=            -189.614993
 Sum of electronic and thermal Free Energies=         -189.651196
 
                     E (Thermal)             CV                S
                      KCal/Mol        Cal/Mol-Kelvin    Cal/Mol-Kelvin
 Total                   20.784             15.470             76.195
 Electronic               0.000              0.000              0.000
 Translational            0.889              2.981             37.404
 Rotational               0.889              2.981             21.637
 Vibrational             19.007              9.508             17.154
 Vibration     1          0.594              1.981              5.191
 Vibration     2          0.595              1.979              5.017
 Vibration     3          0.607              1.938              3.193
 Vibration     4          0.632              1.858              2.259
 Vibration     5          0.685              1.696              1.486
                       Q            Log10(Q)             Ln(Q)
 Total Bot       0.961230D+01          0.982827          2.263044
 Total V=0       0.218273D+14         13.338999         30.714181
 Vib (Bot)       0.656055D-10        -10.183060        -23.447361
 Vib (Bot)    1  0.499672D+01          0.698685          1.608782
 Vib (Bot)    2  0.457452D+01          0.660346          1.520502
 Vib (Bot)    3  0.178888D+01          0.252581          0.581590
 Vib (Bot)    4  0.107266D+01          0.030461          0.070140
 Vib (Bot)    5  0.664936D+00         -0.177220         -0.408065
 Vib (V=0)       0.148975D+03          2.173112          5.003776
 Vib (V=0)    1  0.552167D+01          0.742071          1.708681
 Vib (V=0)    2  0.510177D+01          0.707721          1.629587
 Vib (V=0)    3  0.235744D+01          0.372441          0.857577
 Vib (V=0)    4  0.168347D+01          0.226205          0.520856
 Vib (V=0)    5  0.133195D+01          0.124488          0.286644
 Electronic      0.100000D+01          0.000000          0.000000
 Translational   0.122650D+08          7.088668         16.322262
 Rotational      0.119459D+05          4.077219          9.388143
 ***** Axes restored to original set *****
 -------------------------------------------------------------------
 Center     Atomic                   Forces (Hartrees/Bohr)
 Number     Number              X              Y              Z
 -------------------------------------------------------------------
      1        6          -0.000066344    0.000010077    0.000000623
      2        8           0.000062640   -0.000010484    0.000000685
      3        8          -0.000003015   -0.000010372    0.000003333
      4        1           0.000010049    0.000001325   -0.000004615
      5        1          -0.000003331    0.000009454   -0.000000026
 -------------------------------------------------------------------
 Cartesian Forces:  Max     0.000066344 RMS     0.000024345
 FormGI is forming the generalized inverse of G from B-inverse, IUseBI=4.

 GradGradGradGradGradGradGradGradGradGradGradGradGradGradGradGradGradGrad
 Berny optimization.
 Internal  Forces:  Max     0.000067100 RMS     0.000022789
 Search for a local minimum.
 Step number   1 out of a maximum of    2
 All quantities printed in internal units (Hartrees-Bohrs-Radians)
 Second derivative matrix not updated -- analytic derivatives used.
 The second derivative matrix:
                          R1        R2        R3        R4        A1
           R1           1.09785
           R2           0.00046   0.00547
           R3          -0.00174   0.00104   0.49397
           R4           0.00018  -0.00049  -0.01214   0.49316
           A1           0.00090   0.00131   0.04128   0.04426   0.16198
           A2           0.00191  -0.00010  -0.00018  -0.00013  -0.00065
           A3          -0.00004   0.00000   0.00000   0.00000   0.00001
           A4           0.00098   0.00052  -0.00100  -0.00052  -0.00194
           A5           0.00000   0.00000   0.00000   0.00000   0.00001
                          A2        A3        A4        A5
           A2           0.00290
           A3          -0.00001   0.00221
           A4           0.00114  -0.00001   0.00307
           A5           0.00002   0.00118   0.00001   0.00150
 ITU=  0
     Eigenvalues ---    0.00062   0.00179   0.00309   0.00403   0.00558
     Eigenvalues ---    0.15093   0.49250   0.50571   1.09786
 Angle between quadratic step and forces=  85.86 degrees.
 Linear search not attempted -- first point.
 Iteration  1 RMS(Cart)=  0.00201418 RMS(Int)=  0.00000437
 Iteration  2 RMS(Cart)=  0.00000422 RMS(Int)=  0.00000000
 Iteration  3 RMS(Cart)=  0.00000000 RMS(Int)=  0.00000000
 Variable       Old X    -DE/DX   Delta X   Delta X   Delta X     New X
                                 (Linear)    (Quad)   (Total)
    R1        2.18630  -0.00007   0.00000  -0.00006  -0.00006   2.18624
    R2        4.08172   0.00000   0.00000  -0.00074  -0.00074   4.08098
    R3        1.84350   0.00001   0.00000   0.00002   0.00002   1.84352
    R4        1.84264   0.00001   0.00000   0.00002   0.00002   1.84266
    A1        1.89300   0.00000   0.00000   0.00000   0.00000   1.89300
    A2        2.90043   0.00000   0.00000  -0.00033  -0.00033   2.90010
    A3        3.14744   0.00000   0.00000  -0.00286  -0.00286   3.14457
    A4        3.07066   0.00000   0.00000   0.00059   0.00059   3.07125
    A5        3.13678   0.00000   0.00000   0.00482   0.00482   3.14160
         Item               Value     Threshold  Converged?
 Maximum Force            0.000067     0.000450     YES
 RMS     Force            0.000023     0.000300     YES
 Maximum Displacement     0.003117     0.001800     NO 
 RMS     Displacement     0.002015     0.001200     NO 
 Predicted change in Energy=-1.404692D-08
                           ----------------------------
                           ! Non-Optimized Parameters !
                           ! (Angstroms and Degrees)  !
 --------------------------                            --------------------------
 ! Name  Definition              Value          Derivative Info.                !
 --------------------------------------------------------------------------------
 ! R1    R(1,2)                  1.1569         -DE/DX =   -0.0001              !
 ! R2    R(2,4)                  2.1596         -DE/DX =    0.0                 !
 ! R3    R(3,4)                  0.9755         -DE/DX =    0.0                 !
 ! R4    R(3,5)                  0.9751         -DE/DX =    0.0                 !
 ! A1    A(4,3,5)              108.4609         -DE/DX =    0.0                 !
 ! A2    L(1,2,4,-3,-1)        166.1635         -DE/DX =    0.0                 !
 ! A3    L(1,2,4,-2,-2)        180.1707         -DE/DX =    0.0                 !
 ! A4    L(2,4,3,5,-1)         175.9699         -DE/DX =    0.0                 !
 ! A5    L(2,4,3,5,-2)         180.0003         -DE/DX =    0.0                 !
 --------------------------------------------------------------------------------
 GradGradGradGradGradGradGradGradGradGradGradGradGradGradGradGradGradGrad


 ----------------------------------------------------------------------

 Electric dipole moment (input orientation):
 (Debye = 10**-18 statcoulomb cm , SI units = C m)
                  (au)            (Debye)         (10**-30 SI)
   Tot        0.107208D+01      0.272495D+01      0.908947D+01
   x          0.763099D+00      0.193961D+01      0.646983D+01
   y          0.752908D+00      0.191370D+01      0.638342D+01
   z          0.127494D-01      0.324056D-01      0.108094D+00

 Dipole polarizability, Alpha (input orientation).
 (esu units = cm**3 , SI units = C**2 m**2 J**-1)
 Alpha(0;0):
               (au)            (10**-24 esu)      (10**-40 SI)
   iso        0.145670D+02      0.215860D+01      0.240177D+01
   aniso      0.123214D+02      0.182585D+01      0.203153D+01
   xx         0.219443D+02      0.325181D+01      0.361813D+01
   yx        -0.230295D+01     -0.341262D+00     -0.379705D+00
   yy         0.129945D+02      0.192559D+01      0.214251D+01
   zx        -0.357338D-01     -0.529520D-02     -0.589171D-02
   zy         0.626091D-01      0.927772D-02      0.103229D-01
   zz         0.876209D+01      0.129841D+01      0.144467D+01

 ----------------------------------------------------------------------

 Dipole orientation:
     6          2.09467346         -2.07344843          2.76647709
     8          0.84579388         -0.84439721          1.45894396
     8         -1.89765280          1.87473284         -3.02995074
     1         -0.99901350          0.97838702         -1.69297444
     1         -3.08095708          3.05218357         -2.24974636

 Electric dipole moment (dipole orientation):
 (Debye = 10**-18 statcoulomb cm , SI units = C m)
                  (au)            (Debye)         (10**-30 SI)
   Tot        0.107208D+01      0.272495D+01      0.908947D+01
   x          0.000000D+00      0.000000D+00      0.000000D+00
   y          0.000000D+00      0.000000D+00      0.000000D+00
   z          0.107208D+01      0.272495D+01      0.908947D+01

 Dipole polarizability, Alpha (dipole orientation).
 (esu units = cm**3 , SI units = C**2 m**2 J**-1)
 Alpha(0;0):
               (au)            (10**-24 esu)      (10**-40 SI)
   iso        0.145670D+02      0.215860D+01      0.240177D+01
   aniso      0.123214D+02      0.182585D+01      0.203153D+01
   xx         0.142869D+02      0.211710D+01      0.235559D+01
   yx        -0.547588D+01     -0.811442D+00     -0.902851D+00
   yy         0.141877D+02      0.210239D+01      0.233923D+01
   zx         0.320507D+01      0.474942D+00      0.528444D+00
   zy        -0.316538D+01     -0.469061D+00     -0.521901D+00
   zz         0.152264D+02      0.225632D+01      0.251049D+01

 ----------------------------------------------------------------------
 Unable to Open any file for archive entry.
 1|1|UNPC-TABISEAL|Freq|RB3LYP|6-31G|C1H2O2|17108|12-Jun-2023|0||#N Geo
 m=AllCheck Guess=TCheck SCRF=Check GenChk RB3LYP/6-31G Freq||Title Car
 d Required||0,1|C,2.1375281045,-0.0818903452,-0.0010153267|O,0.9937501
 087,0.0920453059,0.00440752|O,-2.132764652,-0.1214320446,-0.0010039253
 |H,-1.1574123475,-0.1026199826,0.0020369275|H,-2.4593492138,0.79724006
 65,0.0120338046||Version=EM64W-G16RevC.01|State=1-A|HF=-189.6490592|RM
 SD=3.657e-010|RMSF=2.434e-005|ZeroPoint=0.0268631|Thermal=0.0331216|ET
 ot=-189.6159376|HTot=-189.6149935|GTot=-189.6511959|Dipole=0.7630994,0
 .7529082,0.0127494|DipoleDeriv=0.7538539,-0.1130685,-0.0033608,-0.1005
 231,0.0660572,0.0005009,-0.0031742,0.0005133,0.0507559,-0.8726768,0.11
 88042,0.003451,0.0877227,-0.045122,-0.0005147,0.0030871,-0.0005219,-0.
 0292308,-0.4490607,0.0625903,0.0023205,0.0364345,-0.3018786,0.0088961,
 0.0020494,0.0089506,-0.8802216,0.2386757,-0.0720282,-0.0021441,-0.0773
 526,0.289949,-0.0023906,-0.0024562,-0.00231,0.4292907,0.3292078,0.0037
 021,-0.0002666,0.0537186,-0.0090056,-0.0064918,0.0004938,-0.0066321,0.
 4294057|Polar=21.9443098,-2.3029496,12.9945377,-0.0357338,0.0626091,8.
 7620933|Quadrupole=-2.9826869,2.0352283,0.9474586,-3.5669092,-0.052001
 8,0.0129964|PG=C01 [X(C1H2O2)]|NImag=0||1.07328399,-0.16224565,0.02517
 734,-0.00506585,0.00076766,0.00059612,-1.07276422,0.16216400,0.0050620
 7,1.07769620,0.16152127,-0.02552742,-0.00076483,-0.16109455,0.02639670
 ,0.00504916,-0.00076577,-0.00106121,-0.00503885,0.00076349,0.00204966,
 0.00221866,-0.00041863,-0.00000998,-0.00276221,0.00043870,0.00000865,0
 .57136580,-0.00009040,-0.00042881,0.00000366,0.00111366,0.00138454,-0.
 00000360,-0.13909170,0.46273805,-0.00000042,0.00000244,-0.00064403,0.0
 0001786,-0.00000012,0.00150173,-0.00050388,0.00661539,0.00159695,-0.00
 225074,0.00025198,0.00000981,-0.00218692,-0.00019629,-0.00000979,-0.47
 606566,0.03212998,-0.00085480,0.49810636,0.00080515,0.00078361,-0.0000
 0372,-0.00147751,-0.00223168,0.00000030,-0.03892816,-0.04284070,-0.000
 73039,-0.01407915,0.05134998,0.00001638,-0.00000145,0.00091689,-0.0000
 2878,-0.00000261,-0.00211280,-0.00193217,-0.00052227,-0.00209837,0.001
 18187,0.00069401,0.00290221,-0.00048769,0.00024831,0.00000395,0.000017
 14,-0.00066913,-0.00000916,-0.09475660,0.10593846,0.00134124,-0.017603
 05,0.05367966,0.00076270,0.11283019,0.00000963,-0.00000473,-0.00000276
 ,-0.00070560,-0.00002215,0.00000558,0.17799979,-0.42085309,-0.00588731
 ,-0.01810653,-0.00706121,-0.00016768,-0.15919730,0.42794119,0.00000072
 ,-0.00000287,0.00019223,-0.00001229,0.00000407,-0.00037738,0.00243738,
 -0.00609318,-0.00035628,-0.00032709,0.00003980,0.00039207,-0.00209872,
 0.00605218,0.00014937||0.00006634,-0.00001008,-0.00000062,-0.00006264,
 0.00001048,-0.00000069,0.00000301,0.00001037,-0.00000333,-0.00001005,-
 0.00000132,0.00000462,0.00000333,-0.00000945,0.00000003|||@
 The archive entry for this job was punched.


 COMMON SENSE IS NOT SO COMMON.   -- VOLTAIRE
 Job cpu time:       0 days  0 hours  0 minutes 13.0 seconds.
 Elapsed time:       0 days  0 hours  0 minutes  9.5 seconds.
 File lengths (MBytes):  RWF=      6 Int=      0 D2E=      0 Chk=      2 Scr=      1
 Normal termination of Gaussian 16 at Mon Jun 12 20:01:15 2023.
