 Entering Link 1 = C:\G16W\l1.exe PID=     14800.
  
 Copyright (c) 1988-2019, Gaussian, Inc.  All Rights Reserved.
  
 This is part of the Gaussian(R) 16 program.  It is based on
 the Gaussian(R) 09 system (copyright 2009, Gaussian, Inc.),
 the Gaussian(R) 03 system (copyright 2003, Gaussian, Inc.),
 the Gaussian(R) 98 system (copyright 1998, Gaussian, Inc.),
 the Gaussian(R) 94 system (copyright 1995, Gaussian, Inc.),
 the Gaussian 92(TM) system (copyright 1992, Gaussian, Inc.),
 the Gaussian 90(TM) system (copyright 1990, Gaussian, Inc.),
 the Gaussian 88(TM) system (copyright 1988, Gaussian, Inc.),
 the Gaussian 86(TM) system (copyright 1986, Carnegie Mellon
 University), and the Gaussian 82(TM) system (copyright 1983,
 Carnegie Mellon University). Gaussian is a federally registered
 trademark of Gaussian, Inc.
  
 This software contains proprietary and confidential information,
 including trade secrets, belonging to Gaussian, Inc.
  
 This software is provided under written license and may be
 used, copied, transmitted, or stored only in accord with that
 written license.
  
 The following legend is applicable only to US Government
 contracts under FAR:
  
                    RESTRICTED RIGHTS LEGEND
  
 Use, reproduction and disclosure by the US Government is
 subject to restrictions as set forth in subparagraphs (a)
 and (c) of the Commercial Computer Software - Restricted
 Rights clause in FAR 52.227-19.
  
 Gaussian, Inc.
 340 Quinnipiac St., Bldg. 40, Wallingford CT 06492
  
  
 ---------------------------------------------------------------
 Warning -- This program may not be used in any manner that
 competes with the business of Gaussian, Inc. or will provide
 assistance to any competitor of Gaussian, Inc.  The licensee
 of this program is prohibited from giving any competitor of
 Gaussian, Inc. access to this program.  By using this program,
 the user acknowledges that Gaussian, Inc. is engaged in the
 business of creating and licensing software in the field of
 computational chemistry and represents and warrants to the
 licensee that it is not a competitor of Gaussian, Inc. and that
 it will not use this program in any manner prohibited above.
 ---------------------------------------------------------------
  

 Cite this work as:
 Gaussian 16, Revision C.01,
 M. J. Frisch, G. W. Trucks, H. B. Schlegel, G. E. Scuseria, 
 M. A. Robb, J. R. Cheeseman, G. Scalmani, V. Barone, 
 G. A. Petersson, H. Nakatsuji, X. Li, M. Caricato, A. V. Marenich, 
 J. Bloino, B. G. Janesko, R. Gomperts, B. Mennucci, H. P. Hratchian, 
 J. V. Ortiz, A. F. Izmaylov, J. L. Sonnenberg, D. Williams-Young, 
 F. Ding, F. Lipparini, F. Egidi, J. Goings, B. Peng, A. Petrone, 
 T. Henderson, D. Ranasinghe, V. G. Zakrzewski, J. Gao, N. Rega, 
 G. Zheng, W. Liang, M. Hada, M. Ehara, K. Toyota, R. Fukuda, 
 J. Hasegawa, M. Ishida, T. Nakajima, Y. Honda, O. Kitao, H. Nakai, 
 T. Vreven, K. Throssell, J. A. Montgomery, Jr., J. E. Peralta, 
 F. Ogliaro, M. J. Bearpark, J. J. Heyd, E. N. Brothers, K. N. Kudin, 
 V. N. Staroverov, T. A. Keith, R. Kobayashi, J. Normand, 
 K. Raghavachari, A. P. Rendell, J. C. Burant, S. S. Iyengar, 
 J. Tomasi, M. Cossi, J. M. Millam, M. Klene, C. Adamo, R. Cammi, 
 J. W. Ochterski, R. L. Martin, K. Morokuma, O. Farkas, 
 J. B. Foresman, and D. J. Fox, Gaussian, Inc., Wallingford CT, 2019.
 
 ******************************************
 Gaussian 16:  EM64W-G16RevC.01 30-May-2019
                23-May-2023 
 ******************************************
 %chk=C:\Calculation\20230510.2\(CO)1(H2O)1\2.chk
 ----------------------------------------------
 # opt freq b3lyp/aug-cc-pvdz geom=connectivity
 ----------------------------------------------
 1/18=20,19=15,26=3,38=1,57=2/1,3;
 2/9=110,12=2,17=6,18=5,40=1/2;
 3/5=16,7=10,11=2,25=1,30=1,71=1,74=-5/1,2,3;
 4//1;
 5/5=2,38=5/2;
 6/7=2,8=2,9=2,10=2,28=1/1;
 7//1,2,3,16;
 1/18=20,19=15,26=3/3(2);
 2/9=110/2;
 99//99;
 2/9=110/2;
 3/5=16,7=10,11=2,25=1,30=1,71=1,74=-5/1,2,3;
 4/5=5,16=3,69=1/1;
 5/5=2,38=5/2;
 7//1,2,3,16;
 1/18=20,19=15,26=3/3(-5);
 2/9=110/2;
 6/7=2,8=2,9=2,10=2,19=2,28=1/1;
 99/9=1/99;
 -------------------
 Title Card Required
 -------------------
 Symbolic Z-matrix:
 Charge =  0 Multiplicity = 1
 O                     2.10147  -0.05098  -0.00246 
 C                     0.97972   0.10289   0.00373 
 O                    -2.31536  -0.1289   -0.00072 
 H                    -2.78845   0.71124  -0.0073 
 H                    -1.37872   0.11041   0.01033 
 

 GradGradGradGradGradGradGradGradGradGradGradGradGradGradGradGradGradGrad
 Berny optimization.
 Initialization pass.
                           ----------------------------
                           !    Initial Parameters    !
                           ! (Angstroms and Degrees)  !
 --------------------------                            --------------------------
 ! Name  Definition              Value          Derivative Info.                !
 --------------------------------------------------------------------------------
 ! R1    R(1,2)                  1.1323         estimate D2E/DX2                !
 ! R2    R(2,5)                  2.3585         estimate D2E/DX2                !
 ! R3    R(3,4)                  0.9642         estimate D2E/DX2                !
 ! R4    R(3,5)                  0.9668         estimate D2E/DX2                !
 ! A1    A(4,3,5)              105.055          estimate D2E/DX2                !
 ! A2    L(1,2,5,-3,-1)        172.372          estimate D2E/DX2                !
 ! A3    L(1,2,5,-2,-2)        180.1562         estimate D2E/DX2                !
 ! A4    L(2,5,3,4,-1)         194.4978         estimate D2E/DX2                !
 ! A5    L(2,5,3,4,-2)         177.8123         estimate D2E/DX2                !
 --------------------------------------------------------------------------------
 Trust Radius=3.00D-01 FncErr=1.00D-07 GrdErr=1.00D-06 EigMax=2.50D+02 EigMin=1.00D-04
 Number of steps in this run=     20 maximum allowed number of steps=    100.
 GradGradGradGradGradGradGradGradGradGradGradGradGradGradGradGradGradGrad

                          Input orientation:                          
 ---------------------------------------------------------------------
 Center     Atomic      Atomic             Coordinates (Angstroms)
 Number     Number       Type             X           Y           Z
 ---------------------------------------------------------------------
      1          8           0        2.101468   -0.050975   -0.002461
      2          6           0        0.979721    0.102894    0.003734
      3          8           0       -2.315363   -0.128901   -0.000719
      4          1           0       -2.788445    0.711240   -0.007299
      5          1           0       -1.378718    0.110406    0.010332
 ---------------------------------------------------------------------
                    Distance matrix (angstroms):
                    1          2          3          4          5
     1  O    0.000000
     2  C    1.132268   0.000000
     3  O    4.417519   3.303230   0.000000
     4  H    4.948964   3.816973   0.964202   0.000000
     5  H    3.483949   2.358460   0.966796   1.532529   0.000000
 Stoichiometry    CH2O2
 Framework group  C1[X(CH2O2)]
 Deg. of freedom     9
 Full point group                 C1      NOp   1
 Largest Abelian subgroup         C1      NOp   1
 Largest concise Abelian subgroup C1      NOp   1
                         Standard orientation:                         
 ---------------------------------------------------------------------
 Center     Atomic      Atomic             Coordinates (Angstroms)
 Number     Number       Type             X           Y           Z
 ---------------------------------------------------------------------
      1          8           0        2.101468   -0.050975   -0.002461
      2          6           0        0.979721    0.102894    0.003734
      3          8           0       -2.315363   -0.128901   -0.000719
      4          1           0       -2.788445    0.711240   -0.007299
      5          1           0       -1.378718    0.110406    0.010332
 ---------------------------------------------------------------------
 Rotational constants (GHZ):         552.1598670           2.8502633           2.8356390
 Standard basis: Aug-CC-pVDZ (5D, 7F)
 There are    93 symmetry adapted cartesian basis functions of A   symmetry.
 There are    87 symmetry adapted basis functions of A   symmetry.
    87 basis functions,   151 primitive gaussians,    93 cartesian basis functions
    12 alpha electrons       12 beta electrons
       nuclear repulsion energy        51.1528057723 Hartrees.
 NAtoms=    5 NActive=    5 NUniq=    5 SFac= 1.00D+00 NAtFMM=   60 NAOKFM=F Big=F
 Integral buffers will be    131072 words long.
 Raffenetti 2 integral format.
 Two-electron integral symmetry is turned on.
 One-electron integrals computed using PRISM.
 NBasis=    87 RedAO= T EigKep=  1.34D-03  NBF=    87
 NBsUse=    87 1.00D-06 EigRej= -1.00D+00 NBFU=    87
 ExpMin= 2.97D-02 ExpMax= 1.17D+04 ExpMxC= 4.01D+02 IAcc=3 IRadAn=         5 AccDes= 0.00D+00
 Harris functional with IExCor=  402 and IRadAn=       5 diagonalized for initial guess.
 HarFok:  IExCor=  402 AccDes= 0.00D+00 IRadAn=         5 IDoV= 1 UseB2=F ITyADJ=14
 ICtDFT=  3500011 ScaDFX=  1.000000  1.000000  1.000000  1.000000
 FoFCou: FMM=F IPFlag=           0 FMFlag=      100000 FMFlg1=           0
         NFxFlg=           0 DoJE=T BraDBF=F KetDBF=T FulRan=T
         wScrn=  0.000000 ICntrl=       500 IOpCl=  0 I1Cent=   200000004 NGrid=           0
         NMat0=    1 NMatS0=      1 NMatT0=    0 NMatD0=    1 NMtDS0=    0 NMtDT0=    0
 Petite list used in FoFCou.
 Keep R1 ints in memory in canonical form, NReq=8247791.
 Requested convergence on RMS density matrix=1.00D-08 within 128 cycles.
 Requested convergence on MAX density matrix=1.00D-06.
 Requested convergence on             energy=1.00D-06.
 No special actions if energy rises.
 SCF Done:  E(RB3LYP) =  -189.777455498     A.U. after   10 cycles
            NFock= 10  Conv=0.25D-08     -V/T= 2.0060

 **********************************************************************

            Population analysis using the SCF Density.

 **********************************************************************

 Orbital symmetries:
       Occupied  (A) (A) (A) (A) (A) (A) (A) (A) (A) (A) (A) (A)
       Virtual   (A) (A) (A) (A) (A) (A) (A) (A) (A) (A) (A) (A)
                 (A) (A) (A) (A) (A) (A) (A) (A) (A) (A) (A) (A)
                 (A) (A) (A) (A) (A) (A) (A) (A) (A) (A) (A) (A)
                 (A) (A) (A) (A) (A) (A) (A) (A) (A) (A) (A) (A)
                 (A) (A) (A) (A) (A) (A) (A) (A) (A) (A) (A) (A)
                 (A) (A) (A) (A) (A) (A) (A) (A) (A) (A) (A) (A)
                 (A) (A) (A)
 The electronic state is 1-A.
 Alpha  occ. eigenvalues --  -19.27834 -19.14974 -10.33096  -1.19149  -1.01129
 Alpha  occ. eigenvalues --   -0.60063  -0.53102  -0.49739  -0.49738  -0.41095
 Alpha  occ. eigenvalues --   -0.38492  -0.31329
 Alpha virt. eigenvalues --   -0.05824  -0.05791  -0.01148   0.01507   0.05106
 Alpha virt. eigenvalues --    0.05744   0.05768   0.10422   0.12219   0.12978
 Alpha virt. eigenvalues --    0.14417   0.15234   0.17787   0.18630   0.20663
 Alpha virt. eigenvalues --    0.21818   0.24748   0.28528   0.29110   0.29531
 Alpha virt. eigenvalues --    0.30712   0.30922   0.32382   0.42989   0.47958
 Alpha virt. eigenvalues --    0.51185   0.53665   0.55008   0.55681   0.56269
 Alpha virt. eigenvalues --    0.61023   0.66864   0.70687   0.75287   0.84174
 Alpha virt. eigenvalues --    0.84984   0.86568   0.91706   0.96327   0.96388
 Alpha virt. eigenvalues --    0.97000   1.00071   1.07249   1.18059   1.23180
 Alpha virt. eigenvalues --    1.24666   1.26747   1.39024   1.39232   1.44660
 Alpha virt. eigenvalues --    1.47143   1.50330   1.68673   1.68692   1.76474
 Alpha virt. eigenvalues --    1.76828   1.87314   1.91227   2.06987   2.16272
 Alpha virt. eigenvalues --    2.19664   2.43624   2.46186   2.67103   2.75404
 Alpha virt. eigenvalues --    3.14904   3.15066   3.27215   3.27609   3.30262
 Alpha virt. eigenvalues --    3.33986   3.35725   3.63537   3.71226   3.90535
          Condensed to atoms (all electrons):
               1          2          3          4          5
     1  O    7.583809   0.586305  -0.000912   0.000104   0.003021
     2  C    0.586305   5.293671  -0.008704   0.000773  -0.019492
     3  O   -0.000912  -0.008704   7.572580   0.338947   0.283370
     4  H    0.000104   0.000773   0.338947   0.721196  -0.131643
     5  H    0.003021  -0.019492   0.283370  -0.131643   0.725210
 Mulliken charges:
               1
     1  O   -0.172326
     2  C    0.147449
     3  O   -0.185280
     4  H    0.070623
     5  H    0.139535
 Sum of Mulliken charges =   0.00000
 Mulliken charges with hydrogens summed into heavy atoms:
               1
     1  O   -0.172326
     2  C    0.147449
     3  O    0.024878
 Electronic spatial extent (au):  <R**2>=            378.0372
 Charge=              0.0000 electrons
 Dipole moment (field-independent basis, Debye):
    X=              1.1766    Y=              1.6626    Z=              0.0051  Tot=              2.0368
 Quadrupole moment (field-independent basis, Debye-Ang):
   XX=            -20.3823   YY=            -16.6222   ZZ=            -18.1055
   XY=             -4.3854   XZ=              0.0298   YZ=             -0.0129
 Traceless Quadrupole moment (field-independent basis, Debye-Ang):
   XX=             -2.0123   YY=              1.7478   ZZ=              0.2645
   XY=             -4.3854   XZ=              0.0298   YZ=             -0.0129
 Octapole moment (field-independent basis, Debye-Ang**2):
  XXX=             -4.9351  YYY=              0.6802  ZZZ=             -0.0189  XYY=             -1.3628
  XXY=             13.1643  XXZ=             -0.1039  XZZ=              2.6167  YZZ=              0.0435
  YYZ=             -0.0138  XYZ=              0.0313
 Hexadecapole moment (field-independent basis, Debye-Ang**3):
 XXXX=           -395.9354 YYYY=            -18.1328 ZZZZ=            -17.5463 XXXY=            -36.5009
 XXXZ=              0.4629 YYYX=             -4.1375 YYYZ=             -0.0164 ZZZX=             -0.0015
 ZZZY=             -0.0097 XXYY=            -63.7165 XXZZ=            -74.0545 YYZZ=             -6.0631
 XXYZ=             -0.0922 YYXZ=              0.0210 ZZXY=             -0.7955
 N-N= 5.115280577232D+01 E-N=-5.486249058938D+02  KE= 1.886445169603D+02
 Calling FoFJK, ICntrl=      2127 FMM=F ISym2X=0 I1Cent= 0 IOpClX= 0 NMat=1 NMatS=1 NMatT=0.
 ***** Axes restored to original set *****
 -------------------------------------------------------------------
 Center     Atomic                   Forces (Hartrees/Bohr)
 Number     Number              X              Y              Z
 -------------------------------------------------------------------
      1        8           0.000197578   -0.000026968   -0.000011652
      2        6          -0.000184282    0.000029065    0.000035523
      3        8          -0.000106664   -0.000054200    0.000030878
      4        1          -0.000011593    0.000026702    0.000009986
      5        1           0.000104960    0.000025402   -0.000064736
 -------------------------------------------------------------------
 Cartesian Forces:  Max     0.000197578 RMS     0.000084867

 GradGradGradGradGradGradGradGradGradGradGradGradGradGradGradGradGradGrad
 Berny optimization.
 FormGI is forming the generalized inverse of G from B-inverse, IUseBI=4.
 Internal  Forces:  Max     0.000199468 RMS     0.000079728
 Search for a local minimum.
 Step number   1 out of a maximum of   20
 All quantities printed in internal units (Hartrees-Bohrs-Radians)
 Mixed Optimization -- En-DIIS/RFO-DIIS
 Second derivative matrix not updated -- first step.
 The second derivative matrix:
                          R1        R2        R3        R4        A1
           R1           1.47806
           R2           0.00000   0.02507
           R3           0.00000   0.00000   0.54579
           R4           0.00000   0.00000   0.00000   0.54037
           A1           0.00000   0.00000   0.00000   0.00000   0.16000
           A2           0.00000   0.00000   0.00000   0.00000   0.00000
           A3           0.00000   0.00000   0.00000   0.00000   0.00000
           A4           0.00000   0.00000   0.00000   0.00000   0.00000
           A5           0.00000   0.00000   0.00000   0.00000   0.00000
                          A2        A3        A4        A5
           A2           0.00230
           A3           0.00000   0.00230
           A4           0.00000   0.00000   0.01468
           A5           0.00000   0.00000   0.00000   0.01468
 ITU=  0
     Eigenvalues ---    0.00230   0.00230   0.01468   0.01468   0.02507
     Eigenvalues ---    0.16000   0.54037   0.54579   1.47806
 RFO step:  Lambda=-3.50446104D-07 EMin= 2.30000000D-03
 Linear search not attempted -- first point.
 Iteration  1 RMS(Cart)=  0.00395127 RMS(Int)=  0.00002070
 Iteration  2 RMS(Cart)=  0.00002034 RMS(Int)=  0.00000000
 Iteration  3 RMS(Cart)=  0.00000000 RMS(Int)=  0.00000000
 Variable       Old X    -DE/DX   Delta X   Delta X   Delta X     New X
                                 (Linear)    (Quad)   (Total)
    R1        2.13968   0.00020   0.00000   0.00013   0.00013   2.13981
    R2        4.45684   0.00001   0.00000   0.00053   0.00053   4.45737
    R3        1.82208   0.00003   0.00000   0.00005   0.00005   1.82213
    R4        1.82698   0.00012   0.00000   0.00022   0.00022   1.82720
    A1        1.83356   0.00000   0.00000  -0.00003  -0.00003   1.83353
    A2        3.00846   0.00000   0.00000   0.00018   0.00018   3.00864
    A3        3.14432   0.00002   0.00000   0.00949   0.00949   3.15381
    A4        3.39463  -0.00001   0.00000  -0.00049  -0.00049   3.39414
    A5        3.10341   0.00003   0.00000   0.00229   0.00229   3.10570
         Item               Value     Threshold  Converged?
 Maximum Force            0.000199     0.000450     YES
 RMS     Force            0.000080     0.000300     YES
 Maximum Displacement     0.009056     0.001800     NO 
 RMS     Displacement     0.003951     0.001200     NO 
 Predicted change in Energy=-1.752230D-07
 GradGradGradGradGradGradGradGradGradGradGradGradGradGradGradGradGradGrad

                          Input orientation:                          
 ---------------------------------------------------------------------
 Center     Atomic      Atomic             Coordinates (Angstroms)
 Number     Number       Type             X           Y           Z
 ---------------------------------------------------------------------
      1          8           0        2.101677   -0.050777   -0.006253
      2          6           0        0.979896    0.102782    0.008527
      3          8           0       -2.315681   -0.128887   -0.001071
      4          1           0       -2.788397    0.711484   -0.008408
      5          1           0       -1.378831    0.110062    0.010794
 ---------------------------------------------------------------------
                    Distance matrix (angstroms):
                    1          2          3          4          5
     1  O    0.000000
     2  C    1.132339   0.000000
     3  O    4.418051   3.303723   0.000000
     4  H    4.949128   3.817176   0.964230   0.000000
     5  H    3.484264   2.358739   0.966915   1.532630   0.000000
 Stoichiometry    CH2O2
 Framework group  C1[X(CH2O2)]
 Deg. of freedom     9
 Full point group                 C1      NOp   1
 Largest Abelian subgroup         C1      NOp   1
 Largest concise Abelian subgroup C1      NOp   1
                         Standard orientation:                         
 ---------------------------------------------------------------------
 Center     Atomic      Atomic             Coordinates (Angstroms)
 Number     Number       Type             X           Y           Z
 ---------------------------------------------------------------------
      1          8           0        2.101672   -0.050904   -0.005161
      2          6           0        0.979891    0.102765    0.008440
      3          8           0       -2.315689   -0.128868   -0.000797
      4          1           0       -2.788379    0.711462   -0.012972
      5          1           0       -1.378836    0.110120    0.009997
 ---------------------------------------------------------------------
 Rotational constants (GHZ):         551.6702183           2.8495742           2.8349779
 Standard basis: Aug-CC-pVDZ (5D, 7F)
 There are    93 symmetry adapted cartesian basis functions of A   symmetry.
 There are    87 symmetry adapted basis functions of A   symmetry.
    87 basis functions,   151 primitive gaussians,    93 cartesian basis functions
    12 alpha electrons       12 beta electrons
       nuclear repulsion energy        51.1482908821 Hartrees.
 NAtoms=    5 NActive=    5 NUniq=    5 SFac= 1.00D+00 NAtFMM=   60 NAOKFM=F Big=F
 Integral buffers will be    131072 words long.
 Raffenetti 2 integral format.
 Two-electron integral symmetry is turned on.
 One-electron integrals computed using PRISM.
 NBasis=    87 RedAO= T EigKep=  1.34D-03  NBF=    87
 NBsUse=    87 1.00D-06 EigRej= -1.00D+00 NBFU=    87
 Initial guess from the checkpoint file:  "C:\Calculation\20230510.2\(CO)1(H2O)1\2.chk"
 B after Tr=     0.000000    0.000000    0.000000
         Rot=    1.000000   -0.000017    0.000000    0.000004 Ang=   0.00 deg.
 Keep R1 ints in memory in canonical form, NReq=8247791.
 Requested convergence on RMS density matrix=1.00D-08 within 128 cycles.
 Requested convergence on MAX density matrix=1.00D-06.
 Requested convergence on             energy=1.00D-06.
 No special actions if energy rises.
 SCF Done:  E(RB3LYP) =  -189.777455525     A.U. after    8 cycles
            NFock=  8  Conv=0.47D-08     -V/T= 2.0060
 Calling FoFJK, ICntrl=      2127 FMM=F ISym2X=0 I1Cent= 0 IOpClX= 0 NMat=1 NMatS=1 NMatT=0.
 ***** Axes restored to original set *****
 -------------------------------------------------------------------
 Center     Atomic                   Forces (Hartrees/Bohr)
 Number     Number              X              Y              Z
 -------------------------------------------------------------------
      1        8           0.000030369   -0.000003862    0.000017596
      2        6          -0.000019664    0.000005496   -0.000014260
      3        8          -0.000005318   -0.000007805    0.000014540
      4        1           0.000003480    0.000005988    0.000010139
      5        1          -0.000008866    0.000000184   -0.000028015
 -------------------------------------------------------------------
 Cartesian Forces:  Max     0.000030369 RMS     0.000014565

 GradGradGradGradGradGradGradGradGradGradGradGradGradGradGradGradGradGrad
 Berny optimization.
 Using GEDIIS/GDIIS optimizer.
 FormGI is forming the generalized inverse of G from B-inverse, IUseBI=4.
 Internal  Forces:  Max     0.000037130 RMS     0.000018114
 Search for a local minimum.
 Step number   2 out of a maximum of   20
 All quantities printed in internal units (Hartrees-Bohrs-Radians)
 Mixed Optimization -- En-DIIS/RFO-DIIS
 Swapping is turned off.
 Update second derivatives using D2CorX and points    1    2
 DE= -2.78D-08 DEPred=-1.75D-07 R= 1.59D-01
 Trust test= 1.59D-01 RLast= 9.79D-03 DXMaxT set to 3.00D-01
 The second derivative matrix:
                          R1        R2        R3        R4        A1
           R1           1.40888
           R2          -0.00687   0.02458
           R3          -0.00947  -0.00097   0.54450
           R4          -0.03790  -0.00412  -0.00513   0.52027
           A1           0.00394   0.00018   0.00057   0.00255   0.16001
           A2          -0.00028  -0.00002  -0.00004  -0.00018   0.00000
           A3           0.00305  -0.00059   0.00055   0.00334   0.00080
           A4           0.00390   0.00027   0.00055   0.00236  -0.00009
           A5          -0.01541  -0.00121  -0.00215  -0.00903   0.00053
                          A2        A3        A4        A5
           A2           0.00230
           A3          -0.00004   0.00634
           A4           0.00001   0.00039   0.01453
           A5          -0.00004  -0.00079   0.00067   0.01176
 ITU=  0  0
     Eigenvalues ---    0.00230   0.00615   0.01121   0.01469   0.02467
     Eigenvalues ---    0.15998   0.51782   0.54554   1.41081
 En-DIIS/RFO-DIIS/Sim-DIIS IScMMF=       -3 using points:     2    1
 RFO step:  Lambda=-2.48665972D-07.
 DidBck=T Rises=F RFO-DIIS coefs:    0.47841    0.52159
 Iteration  1 RMS(Cart)=  0.00258107 RMS(Int)=  0.00000820
 Iteration  2 RMS(Cart)=  0.00000803 RMS(Int)=  0.00000000
 Iteration  3 RMS(Cart)=  0.00000000 RMS(Int)=  0.00000000
 Variable       Old X    -DE/DX   Delta X   Delta X   Delta X     New X
                                 (Linear)    (Quad)   (Total)
    R1        2.13981   0.00003  -0.00007   0.00013   0.00006   2.13987
    R2        4.45737   0.00001  -0.00028   0.00068   0.00040   4.45778
    R3        1.82213   0.00000  -0.00003   0.00005   0.00002   1.82215
    R4        1.82720   0.00000  -0.00012   0.00019   0.00008   1.82728
    A1        1.83353  -0.00001   0.00001  -0.00006  -0.00004   1.83349
    A2        3.00864   0.00000  -0.00009   0.00029   0.00020   3.00884
    A3        3.15381  -0.00004  -0.00495  -0.00073  -0.00568   3.14813
    A4        3.39414  -0.00001   0.00025  -0.00065  -0.00040   3.39374
    A5        3.10570   0.00002  -0.00119   0.00266   0.00147   3.10717
         Item               Value     Threshold  Converged?
 Maximum Force            0.000037     0.000450     YES
 RMS     Force            0.000018     0.000300     YES
 Maximum Displacement     0.005542     0.001800     NO 
 RMS     Displacement     0.002581     0.001200     NO 
 Predicted change in Energy=-1.243336D-07
 GradGradGradGradGradGradGradGradGradGradGradGradGradGradGradGradGradGrad

                          Input orientation:                          
 ---------------------------------------------------------------------
 Center     Atomic      Atomic             Coordinates (Angstroms)
 Number     Number       Type             X           Y           Z
 ---------------------------------------------------------------------
      1          8           0        2.101899   -0.050595   -0.003786
      2          6           0        0.979990    0.102668    0.005594
      3          8           0       -2.315935   -0.128870   -0.000532
      4          1           0       -2.788342    0.711690   -0.007581
      5          1           0       -1.378949    0.109772    0.009893
 ---------------------------------------------------------------------
                    Distance matrix (angstroms):
                    1          2          3          4          5
     1  O    0.000000
     2  C    1.132368   0.000000
     3  O    4.418529   3.304054   0.000000
     4  H    4.949298   3.817251   0.964240   0.000000
     5  H    3.484567   2.358953   0.966955   1.532645   0.000000
 Stoichiometry    CH2O2
 Framework group  C1[X(CH2O2)]
 Deg. of freedom     9
 Full point group                 C1      NOp   1
 Largest Abelian subgroup         C1      NOp   1
 Largest concise Abelian subgroup C1      NOp   1
                         Standard orientation:                         
 ---------------------------------------------------------------------
 Center     Atomic      Atomic             Coordinates (Angstroms)
 Number     Number       Type             X           Y           Z
 ---------------------------------------------------------------------
      1          8           0        2.101882   -0.050781   -0.003456
      2          6           0        0.979979    0.102554    0.005509
      3          8           0       -2.315957   -0.128826   -0.000706
      4          1           0       -2.788319    0.711745   -0.009216
      5          1           0       -1.378960    0.109785    0.009458
 ---------------------------------------------------------------------
 Rotational constants (GHZ):         552.5001212           2.8490080           2.8344146
 Standard basis: Aug-CC-pVDZ (5D, 7F)
 There are    93 symmetry adapted cartesian basis functions of A   symmetry.
 There are    87 symmetry adapted basis functions of A   symmetry.
    87 basis functions,   151 primitive gaussians,    93 cartesian basis functions
    12 alpha electrons       12 beta electrons
       nuclear repulsion energy        51.1456061153 Hartrees.
 NAtoms=    5 NActive=    5 NUniq=    5 SFac= 1.00D+00 NAtFMM=   60 NAOKFM=F Big=F
 Integral buffers will be    131072 words long.
 Raffenetti 2 integral format.
 Two-electron integral symmetry is turned on.
 One-electron integrals computed using PRISM.
 NBasis=    87 RedAO= T EigKep=  1.34D-03  NBF=    87
 NBsUse=    87 1.00D-06 EigRej= -1.00D+00 NBFU=    87
 Initial guess from the checkpoint file:  "C:\Calculation\20230510.2\(CO)1(H2O)1\2.chk"
 B after Tr=     0.000000    0.000000    0.000000
         Rot=    1.000000   -0.000027    0.000000    0.000003 Ang=   0.00 deg.
 Keep R1 ints in memory in canonical form, NReq=8247791.
 Requested convergence on RMS density matrix=1.00D-08 within 128 cycles.
 Requested convergence on MAX density matrix=1.00D-06.
 Requested convergence on             energy=1.00D-06.
 No special actions if energy rises.
 SCF Done:  E(RB3LYP) =  -189.777455686     A.U. after    8 cycles
            NFock=  8  Conv=0.29D-08     -V/T= 2.0060
 Calling FoFJK, ICntrl=      2127 FMM=F ISym2X=0 I1Cent= 0 IOpClX= 0 NMat=1 NMatS=1 NMatT=0.
 ***** Axes restored to original set *****
 -------------------------------------------------------------------
 Center     Atomic                   Forces (Hartrees/Bohr)
 Number     Number              X              Y              Z
 -------------------------------------------------------------------
      1        8          -0.000038235    0.000005357    0.000002883
      2        6           0.000047478   -0.000003890    0.000010387
      3        8           0.000029803    0.000011367    0.000022551
      4        1           0.000006651   -0.000002574    0.000009477
      5        1          -0.000045697   -0.000010260   -0.000045298
 -------------------------------------------------------------------
 Cartesian Forces:  Max     0.000047478 RMS     0.000025545

 GradGradGradGradGradGradGradGradGradGradGradGradGradGradGradGradGradGrad
 Berny optimization.
 Using GEDIIS/GDIIS optimizer.
 FormGI is forming the generalized inverse of G from B-inverse, IUseBI=4.
 Internal  Forces:  Max     0.000038632 RMS     0.000020409
 Search for a local minimum.
 Step number   3 out of a maximum of   20
 All quantities printed in internal units (Hartrees-Bohrs-Radians)
 Mixed Optimization -- En-DIIS/RFO-DIIS
 Swapping is turned off.
 Update second derivatives using D2CorX and points    1    2    3
 DE= -1.60D-07 DEPred=-1.24D-07 R= 1.29D+00
 Trust test= 1.29D+00 RLast= 5.89D-03 DXMaxT set to 3.00D-01
 The second derivative matrix:
                          R1        R2        R3        R4        A1
           R1           1.53493
           R2          -0.00895   0.02370
           R3           0.00839  -0.00120   0.54703
           R4           0.04781  -0.00435   0.00693   0.57701
           A1           0.00659   0.00084   0.00090   0.00344   0.15953
           A2          -0.00028  -0.00005  -0.00004  -0.00013   0.00003
           A3          -0.00461   0.00036  -0.00059  -0.00294   0.00001
           A4           0.00478   0.00077   0.00064   0.00229  -0.00047
           A5          -0.02723  -0.00331  -0.00368  -0.01409   0.00203
                          A2        A3        A4        A5
           A2           0.00230
           A3          -0.00001   0.00608
           A4           0.00003  -0.00013   0.01425
           A5          -0.00014   0.00199   0.00188   0.00715
 ITU=  0  0  0
     Eigenvalues ---    0.00229   0.00368   0.00746   0.01472   0.02434
     Eigenvalues ---    0.15951   0.54550   0.57646   1.53801
 En-DIIS/RFO-DIIS/Sim-DIIS IScMMF=       -3 using points:     3    2    1
 RFO step:  Lambda=-1.71341174D-07.
 DidBck=F Rises=F RFO-DIIS coefs:    3.00000   -1.01289   -0.98711
 Iteration  1 RMS(Cart)=  0.00257302 RMS(Int)=  0.00000952
 Iteration  2 RMS(Cart)=  0.00000770 RMS(Int)=  0.00000000
 Iteration  3 RMS(Cart)=  0.00000000 RMS(Int)=  0.00000000
 Variable       Old X    -DE/DX   Delta X   Delta X   Delta X     New X
                                 (Linear)    (Quad)   (Total)
    R1        2.13987  -0.00004   0.00024  -0.00017   0.00007   2.13994
    R2        4.45778   0.00001   0.00133   0.00039   0.00172   4.45950
    R3        1.82215  -0.00001   0.00009  -0.00007   0.00002   1.82217
    R4        1.82728  -0.00004   0.00037  -0.00033   0.00004   1.82732
    A1        1.83349  -0.00001  -0.00011  -0.00007  -0.00018   1.83331
    A2        3.00884   0.00000   0.00057   0.00013   0.00070   3.00954
    A3        3.14813  -0.00001  -0.00199  -0.00106  -0.00305   3.14508
    A4        3.39374  -0.00001  -0.00128  -0.00035  -0.00163   3.39211
    A5        3.10717   0.00003   0.00520   0.00238   0.00758   3.11474
         Item               Value     Threshold  Converged?
 Maximum Force            0.000039     0.000450     YES
 RMS     Force            0.000020     0.000300     YES
 Maximum Displacement     0.003764     0.001800     NO 
 RMS     Displacement     0.002574     0.001200     NO 
 Predicted change in Energy=-7.370357D-08
 GradGradGradGradGradGradGradGradGradGradGradGradGradGradGradGradGradGrad

                          Input orientation:                          
 ---------------------------------------------------------------------
 Center     Atomic      Atomic             Coordinates (Angstroms)
 Number     Number       Type             X           Y           Z
 ---------------------------------------------------------------------
      1          8           0        2.102516   -0.049862   -0.001980
      2          6           0        0.980386    0.102249    0.003859
      3          8           0       -2.316828   -0.128795    0.000542
      4          1           0       -2.787945    0.712502   -0.006734
      5          1           0       -1.379466    0.108569    0.007901
 ---------------------------------------------------------------------
                    Distance matrix (angstroms):
                    1          2          3          4          5
     1  O    0.000000
     2  C    1.132407   0.000000
     3  O    4.420049   3.305301   0.000000
     4  H    4.949528   3.817439   0.964253   0.000000
     5  H    3.485598   2.359864   0.966976   1.532567   0.000000
 Stoichiometry    CH2O2
 Framework group  C1[X(CH2O2)]
 Deg. of freedom     9
 Full point group                 C1      NOp   1
 Largest Abelian subgroup         C1      NOp   1
 Largest concise Abelian subgroup C1      NOp   1
                         Standard orientation:                         
 ---------------------------------------------------------------------
 Center     Atomic      Atomic             Coordinates (Angstroms)
 Number     Number       Type             X           Y           Z
 ---------------------------------------------------------------------
      1          8           0        2.102492   -0.050390   -0.002320
      2          6           0        0.980384    0.101876    0.003645
      3          8           0       -2.316864   -0.128673   -0.000543
      4          1           0       -2.787855    0.712706   -0.006346
      5          1           0       -1.379468    0.108539    0.007378
 ---------------------------------------------------------------------
 Rotational constants (GHZ):         553.8349243           2.8471438           2.8325926
 Standard basis: Aug-CC-pVDZ (5D, 7F)
 There are    93 symmetry adapted cartesian basis functions of A   symmetry.
 There are    87 symmetry adapted basis functions of A   symmetry.
    87 basis functions,   151 primitive gaussians,    93 cartesian basis functions
    12 alpha electrons       12 beta electrons
       nuclear repulsion energy        51.1382026085 Hartrees.
 NAtoms=    5 NActive=    5 NUniq=    5 SFac= 1.00D+00 NAtFMM=   60 NAOKFM=F Big=F
 Integral buffers will be    131072 words long.
 Raffenetti 2 integral format.
 Two-electron integral symmetry is turned on.
 One-electron integrals computed using PRISM.
 NBasis=    87 RedAO= T EigKep=  1.34D-03  NBF=    87
 NBsUse=    87 1.00D-06 EigRej= -1.00D+00 NBFU=    87
 Initial guess from the checkpoint file:  "C:\Calculation\20230510.2\(CO)1(H2O)1\2.chk"
 B after Tr=     0.000000    0.000000    0.000000
         Rot=    1.000000   -0.000063    0.000000    0.000013 Ang=  -0.01 deg.
 Keep R1 ints in memory in canonical form, NReq=8247791.
 Requested convergence on RMS density matrix=1.00D-08 within 128 cycles.
 Requested convergence on MAX density matrix=1.00D-06.
 Requested convergence on             energy=1.00D-06.
 No special actions if energy rises.
 SCF Done:  E(RB3LYP) =  -189.777455870     A.U. after    8 cycles
            NFock=  8  Conv=0.19D-08     -V/T= 2.0060
 Calling FoFJK, ICntrl=      2127 FMM=F ISym2X=0 I1Cent= 0 IOpClX= 0 NMat=1 NMatS=1 NMatT=0.
 ***** Axes restored to original set *****
 -------------------------------------------------------------------
 Center     Atomic                   Forces (Hartrees/Bohr)
 Number     Number              X              Y              Z
 -------------------------------------------------------------------
      1        8          -0.000127204    0.000017025   -0.000001149
      2        6           0.000130480   -0.000016431    0.000014130
      3        8           0.000054558    0.000036871    0.000019872
      4        1           0.000000809   -0.000014680    0.000007303
      5        1          -0.000058643   -0.000022784   -0.000040155
 -------------------------------------------------------------------
 Cartesian Forces:  Max     0.000130480 RMS     0.000054490

 GradGradGradGradGradGradGradGradGradGradGradGradGradGradGradGradGradGrad
 Berny optimization.
 Using GEDIIS/GDIIS optimizer.
 FormGI is forming the generalized inverse of G from B-inverse, IUseBI=4.
 Internal  Forces:  Max     0.000128333 RMS     0.000048041
 Search for a local minimum.
 Step number   4 out of a maximum of   20
 All quantities printed in internal units (Hartrees-Bohrs-Radians)
 Mixed Optimization -- En-DIIS/RFO-DIIS
 Swapping is turned off.
 Update second derivatives using D2CorX and points    1    2    3    4
 DE= -1.84D-07 DEPred=-7.37D-08 R= 2.50D+00
 Trust test= 2.50D+00 RLast= 8.53D-03 DXMaxT set to 3.00D-01
 The second derivative matrix:
                          R1        R2        R3        R4        A1
           R1           1.98638
           R2           0.00687   0.02369
           R3           0.06089   0.00064   0.55319
           R4           0.26199   0.00368   0.03217   0.68026
           A1          -0.03515  -0.00031  -0.00378  -0.01550   0.16383
           A2           0.00146  -0.00001   0.00016   0.00068  -0.00014
           A3          -0.01558  -0.00016  -0.00169  -0.00690   0.00170
           A4          -0.00583   0.00070  -0.00059  -0.00297   0.00037
           A5          -0.01904  -0.00460  -0.00261  -0.00804   0.00254
                          A2        A3        A4        A5
           A2           0.00230
           A3          -0.00007   0.00634
           A4           0.00000   0.00022   0.01433
           A5          -0.00017   0.00168   0.00256   0.00308
 ITU=  0  0  0  0
     Eigenvalues ---    0.00100   0.00231   0.00650   0.01484   0.02460
     Eigenvalues ---    0.16295   0.54550   0.63466   2.04103
 En-DIIS/RFO-DIIS/Sim-DIIS IScMMF=       -3 using points:     4    3    2    1
 RFO step:  Lambda=-3.65853005D-07.
 DIIS inversion failure, remove point   4.
 RFO-DIIS uses    3 points instead of    4
 DidBck=F Rises=F RFO-DIIS coefs:    2.49844   -2.00000    0.50156    0.00000
 Iteration  1 RMS(Cart)=  0.00477214 RMS(Int)=  0.00004268
 Iteration  2 RMS(Cart)=  0.00003350 RMS(Int)=  0.00000000
 Iteration  3 RMS(Cart)=  0.00000000 RMS(Int)=  0.00000000
 Variable       Old X    -DE/DX   Delta X   Delta X   Delta X     New X
                                 (Linear)    (Quad)   (Total)
    R1        2.13994  -0.00013   0.00008  -0.00006   0.00002   2.13996
    R2        4.45950   0.00000   0.00238   0.00129   0.00367   4.46317
    R3        1.82217  -0.00001   0.00003   0.00000   0.00003   1.82220
    R4        1.82732  -0.00006   0.00002  -0.00002   0.00000   1.82732
    A1        1.83331   0.00001  -0.00025   0.00014  -0.00010   1.83320
    A2        3.00954   0.00000   0.00095  -0.00004   0.00091   3.01044
    A3        3.14508   0.00000  -0.00172  -0.00193  -0.00365   3.14144
    A4        3.39211   0.00000  -0.00224  -0.00110  -0.00335   3.38876
    A5        3.11474   0.00002   0.01061   0.00750   0.01811   3.13286
         Item               Value     Threshold  Converged?
 Maximum Force            0.000128     0.000450     YES
 RMS     Force            0.000048     0.000300     YES
 Maximum Displacement     0.008400     0.001800     NO 
 RMS     Displacement     0.004775     0.001200     NO 
 Predicted change in Energy=-1.811510D-07
 GradGradGradGradGradGradGradGradGradGradGradGradGradGradGradGradGradGrad

                          Input orientation:                          
 ---------------------------------------------------------------------
 Center     Atomic      Atomic             Coordinates (Angstroms)
 Number     Number       Type             X           Y           Z
 ---------------------------------------------------------------------
      1          8           0        2.103705   -0.048612    0.000840
      2          6           0        0.981299    0.101645    0.001564
      3          8           0       -2.318537   -0.128596    0.002881
      4          1           0       -2.787303    0.714021   -0.005154
      5          1           0       -1.380501    0.106205    0.003456
 ---------------------------------------------------------------------
                    Distance matrix (angstroms):
                    1          2          3          4          5
     1  O    0.000000
     2  C    1.132419   0.000000
     3  O    4.422966   3.307859   0.000000
     4  H    4.950112   3.818038   0.964267   0.000000
     5  H    3.487645   2.361805   0.966977   1.532516   0.000000
 Stoichiometry    CH2O2
 Framework group  C1[X(CH2O2)]
 Deg. of freedom     9
 Full point group                 C1      NOp   1
 Largest Abelian subgroup         C1      NOp   1
 Largest concise Abelian subgroup C1      NOp   1
                         Standard orientation:                         
 ---------------------------------------------------------------------
 Center     Atomic      Atomic             Coordinates (Angstroms)
 Number     Number       Type             X           Y           Z
 ---------------------------------------------------------------------
      1          8           0        2.103634   -0.049776   -0.000645
      2          6           0        0.981275    0.100819    0.000996
      3          8           0       -2.318633   -0.128400   -0.000176
      4          1           0       -2.787136    0.714400   -0.001814
      5          1           0       -1.380524    0.106098    0.002412
 ---------------------------------------------------------------------
 Rotational constants (GHZ):         555.6886834           2.8434994           2.8290239
 Standard basis: Aug-CC-pVDZ (5D, 7F)
 There are    93 symmetry adapted cartesian basis functions of A   symmetry.
 There are    87 symmetry adapted basis functions of A   symmetry.
    87 basis functions,   151 primitive gaussians,    93 cartesian basis functions
    12 alpha electrons       12 beta electrons
       nuclear repulsion energy        51.1248761684 Hartrees.
 NAtoms=    5 NActive=    5 NUniq=    5 SFac= 1.00D+00 NAtFMM=   60 NAOKFM=F Big=F
 Integral buffers will be    131072 words long.
 Raffenetti 2 integral format.
 Two-electron integral symmetry is turned on.
 One-electron integrals computed using PRISM.
 NBasis=    87 RedAO= T EigKep=  1.34D-03  NBF=    87
 NBsUse=    87 1.00D-06 EigRej= -1.00D+00 NBFU=    87
 Initial guess from the checkpoint file:  "C:\Calculation\20230510.2\(CO)1(H2O)1\2.chk"
 B after Tr=     0.000000    0.000000    0.000000
         Rot=    1.000000   -0.000057    0.000000    0.000024 Ang=  -0.01 deg.
 Keep R1 ints in memory in canonical form, NReq=8247791.
 Requested convergence on RMS density matrix=1.00D-08 within 128 cycles.
 Requested convergence on MAX density matrix=1.00D-06.
 Requested convergence on             energy=1.00D-06.
 No special actions if energy rises.
 SCF Done:  E(RB3LYP) =  -189.777456087     A.U. after    8 cycles
            NFock=  8  Conv=0.30D-08     -V/T= 2.0060
 Calling FoFJK, ICntrl=      2127 FMM=F ISym2X=0 I1Cent= 0 IOpClX= 0 NMat=1 NMatS=1 NMatT=0.
 ***** Axes restored to original set *****
 -------------------------------------------------------------------
 Center     Atomic                   Forces (Hartrees/Bohr)
 Number     Number              X              Y              Z
 -------------------------------------------------------------------
      1        8          -0.000149258    0.000020617   -0.000001634
      2        6           0.000139553   -0.000022891    0.000006673
      3        8           0.000061227    0.000045371    0.000006828
      4        1           0.000004422   -0.000025102    0.000002540
      5        1          -0.000055943   -0.000017995   -0.000014407
 -------------------------------------------------------------------
 Cartesian Forces:  Max     0.000149258 RMS     0.000059397

 GradGradGradGradGradGradGradGradGradGradGradGradGradGradGradGradGradGrad
 Berny optimization.
 Using GEDIIS/GDIIS optimizer.
 FormGI is forming the generalized inverse of G from B-inverse, IUseBI=4.
 Internal  Forces:  Max     0.000150675 RMS     0.000056239
 Search for a local minimum.
 Step number   5 out of a maximum of   20
 All quantities printed in internal units (Hartrees-Bohrs-Radians)
 Mixed Optimization -- En-DIIS/RFO-DIIS
 Swapping is turned off.
 Update second derivatives using D2CorX and points    1    2    3    4    5
 DE= -2.17D-07 DEPred=-1.81D-07 R= 1.20D+00
 Trust test= 1.20D+00 RLast= 1.92D-02 DXMaxT set to 3.00D-01
 The second derivative matrix:
                          R1        R2        R3        R4        A1
           R1           2.05867
           R2           0.01733   0.02451
           R3           0.07471   0.00227   0.55564
           R4           0.29382   0.00854   0.03848   0.69423
           A1          -0.04330  -0.00133  -0.00520  -0.01912   0.16474
           A2           0.00037  -0.00008   0.00000   0.00014  -0.00005
           A3          -0.01620  -0.00029  -0.00180  -0.00721   0.00176
           A4          -0.01385   0.00005  -0.00184  -0.00673   0.00114
           A5          -0.01097  -0.00433  -0.00148  -0.00444   0.00169
                          A2        A3        A4        A5
           A2           0.00231
           A3          -0.00007   0.00631
           A4           0.00005   0.00030   0.01484
           A5          -0.00020   0.00143   0.00227   0.00238
 ITU=  0  0  0  0  0
     Eigenvalues ---    0.00086   0.00233   0.00640   0.01506   0.02508
     Eigenvalues ---    0.16344   0.54566   0.63976   2.12502
 En-DIIS/RFO-DIIS/Sim-DIIS IScMMF=       -3 using points:     5    4    3    2    1
 RFO step:  Lambda=-3.71019965D-08.
 DIIS inversion failure, remove point   5.
 DIIS inversion failure, remove point   4.
 RFO-DIIS uses    3 points instead of    5
 DidBck=F Rises=F RFO-DIIS coefs:    1.15646   -0.06572   -0.09075    0.00000    0.00000
 Iteration  1 RMS(Cart)=  0.00088941 RMS(Int)=  0.00000092
 Iteration  2 RMS(Cart)=  0.00000116 RMS(Int)=  0.00000000
 Iteration  3 RMS(Cart)=  0.00000000 RMS(Int)=  0.00000000
 Variable       Old X    -DE/DX   Delta X   Delta X   Delta X     New X
                                 (Linear)    (Quad)   (Total)
    R1        2.13996  -0.00015   0.00001  -0.00006  -0.00005   2.13992
    R2        4.46317  -0.00001   0.00073  -0.00039   0.00034   4.46351
    R3        1.82220  -0.00002   0.00001  -0.00003  -0.00002   1.82218
    R4        1.82732  -0.00007   0.00000  -0.00006  -0.00006   1.82726
    A1        1.83320   0.00002  -0.00003   0.00007   0.00004   1.83324
    A2        3.01044   0.00000   0.00021   0.00073   0.00094   3.01138
    A3        3.14144   0.00000  -0.00085   0.00036  -0.00049   3.14095
    A4        3.38876   0.00001  -0.00067   0.00059  -0.00008   3.38868
    A5        3.13286   0.00001   0.00352   0.00022   0.00375   3.13660
         Item               Value     Threshold  Converged?
 Maximum Force            0.000151     0.000450     YES
 RMS     Force            0.000056     0.000300     YES
 Maximum Displacement     0.001708     0.001800     YES
 RMS     Displacement     0.000889     0.001200     YES
 Predicted change in Energy=-1.851074D-08
 Optimization completed.
    -- Stationary point found.
                           ----------------------------
                           !   Optimized Parameters   !
                           ! (Angstroms and Degrees)  !
 --------------------------                            --------------------------
 ! Name  Definition              Value          Derivative Info.                !
 --------------------------------------------------------------------------------
 ! R1    R(1,2)                  1.1324         -DE/DX =   -0.0002              !
 ! R2    R(2,5)                  2.3618         -DE/DX =    0.0                 !
 ! R3    R(3,4)                  0.9643         -DE/DX =    0.0                 !
 ! R4    R(3,5)                  0.967          -DE/DX =   -0.0001              !
 ! A1    A(4,3,5)              105.0348         -DE/DX =    0.0                 !
 ! A2    L(1,2,5,-3,-1)        172.4858         -DE/DX =    0.0                 !
 ! A3    L(1,2,5,-2,-2)        179.9911         -DE/DX =    0.0                 !
 ! A4    L(2,5,3,4,-1)         194.1618         -DE/DX =    0.0                 !
 ! A5    L(2,5,3,4,-2)         179.4994         -DE/DX =    0.0                 !
 --------------------------------------------------------------------------------
 GradGradGradGradGradGradGradGradGradGradGradGradGradGradGradGradGradGrad

                          Input orientation:                          
 ---------------------------------------------------------------------
 Center     Atomic      Atomic             Coordinates (Angstroms)
 Number     Number       Type             X           Y           Z
 ---------------------------------------------------------------------
      1          8           0        2.103705   -0.048612    0.000840
      2          6           0        0.981299    0.101645    0.001564
      3          8           0       -2.318537   -0.128596    0.002881
      4          1           0       -2.787303    0.714021   -0.005154
      5          1           0       -1.380501    0.106205    0.003456
 ---------------------------------------------------------------------
                    Distance matrix (angstroms):
                    1          2          3          4          5
     1  O    0.000000
     2  C    1.132419   0.000000
     3  O    4.422966   3.307859   0.000000
     4  H    4.950112   3.818038   0.964267   0.000000
     5  H    3.487645   2.361805   0.966977   1.532516   0.000000
 Stoichiometry    CH2O2
 Framework group  C1[X(CH2O2)]
 Deg. of freedom     9
 Full point group                 C1      NOp   1
 Largest Abelian subgroup         C1      NOp   1
 Largest concise Abelian subgroup C1      NOp   1
                         Standard orientation:                         
 ---------------------------------------------------------------------
 Center     Atomic      Atomic             Coordinates (Angstroms)
 Number     Number       Type             X           Y           Z
 ---------------------------------------------------------------------
      1          8           0        2.103634   -0.049776   -0.000645
      2          6           0        0.981275    0.100819    0.000996
      3          8           0       -2.318633   -0.128400   -0.000176
      4          1           0       -2.787136    0.714400   -0.001814
      5          1           0       -1.380524    0.106098    0.002412
 ---------------------------------------------------------------------
 Rotational constants (GHZ):         555.6886834           2.8434994           2.8290239

 **********************************************************************

            Population analysis using the SCF Density.

 **********************************************************************

 Orbital symmetries:
       Occupied  (A) (A) (A) (A) (A) (A) (A) (A) (A) (A) (A) (A)
       Virtual   (A) (A) (A) (A) (A) (A) (A) (A) (A) (A) (A) (A)
                 (A) (A) (A) (A) (A) (A) (A) (A) (A) (A) (A) (A)
                 (A) (A) (A) (A) (A) (A) (A) (A) (A) (A) (A) (A)
                 (A) (A) (A) (A) (A) (A) (A) (A) (A) (A) (A) (A)
                 (A) (A) (A) (A) (A) (A) (A) (A) (A) (A) (A) (A)
                 (A) (A) (A) (A) (A) (A) (A) (A) (A) (A) (A) (A)
                 (A) (A) (A)
 The electronic state is 1-A.
 Alpha  occ. eigenvalues --  -19.27836 -19.14980 -10.33103  -1.19142  -1.01128
 Alpha  occ. eigenvalues --   -0.60064  -0.53094  -0.49736  -0.49735  -0.41099
 Alpha  occ. eigenvalues --   -0.38496  -0.31331
 Alpha virt. eigenvalues --   -0.05832  -0.05798  -0.01150   0.01507   0.05093
 Alpha virt. eigenvalues --    0.05747   0.05767   0.10410   0.12202   0.12971
 Alpha virt. eigenvalues --    0.14437   0.15225   0.17777   0.18629   0.20651
 Alpha virt. eigenvalues --    0.21825   0.24736   0.28528   0.29105   0.29497
 Alpha virt. eigenvalues --    0.30697   0.30903   0.32364   0.42942   0.47960
 Alpha virt. eigenvalues --    0.51198   0.53664   0.55009   0.55700   0.56202
 Alpha virt. eigenvalues --    0.60931   0.66813   0.70684   0.75311   0.84141
 Alpha virt. eigenvalues --    0.84973   0.86543   0.91700   0.96329   0.96365
 Alpha virt. eigenvalues --    0.96990   1.00072   1.07251   1.18069   1.23155
 Alpha virt. eigenvalues --    1.24661   1.26455   1.39017   1.39222   1.44767
 Alpha virt. eigenvalues --    1.47145   1.50268   1.68660   1.68686   1.76461
 Alpha virt. eigenvalues --    1.76811   1.87277   1.91192   2.06941   2.16234
 Alpha virt. eigenvalues --    2.19626   2.43592   2.46179   2.67117   2.75338
 Alpha virt. eigenvalues --    3.14899   3.15061   3.27214   3.27608   3.30254
 Alpha virt. eigenvalues --    3.33963   3.35725   3.63475   3.71188   3.90503
          Condensed to atoms (all electrons):
               1          2          3          4          5
     1  O    7.583743   0.586275  -0.000913   0.000101   0.002980
     2  C    0.586275   5.293596  -0.008728   0.000708  -0.019392
     3  O   -0.000913  -0.008728   7.573168   0.339108   0.282968
     4  H    0.000101   0.000708   0.339108   0.720813  -0.131067
     5  H    0.002980  -0.019392   0.282968  -0.131067   0.724599
 Mulliken charges:
               1
     1  O   -0.172187
     2  C    0.147541
     3  O   -0.185603
     4  H    0.070336
     5  H    0.139913
 Sum of Mulliken charges =   0.00000
 Mulliken charges with hydrogens summed into heavy atoms:
               1
     1  O   -0.172187
     2  C    0.147541
     3  O    0.024646
 Electronic spatial extent (au):  <R**2>=            378.8172
 Charge=              0.0000 electrons
 Dipole moment (field-independent basis, Debye):
    X=              1.1850    Y=              1.6595    Z=              0.0011  Tot=              2.0392
 Quadrupole moment (field-independent basis, Debye-Ang):
   XX=            -20.4379   YY=            -16.6117   ZZ=            -18.1067
   XY=             -4.3932   XZ=              0.0077   YZ=             -0.0033
 Traceless Quadrupole moment (field-independent basis, Debye-Ang):
   XX=             -2.0525   YY=              1.7737   ZZ=              0.2787
   XY=             -4.3932   XZ=              0.0077   YZ=             -0.0033
 Octapole moment (field-independent basis, Debye-Ang**2):
  XXX=             -4.7365  YYY=              0.6989  ZZZ=             -0.0050  XYY=             -1.3883
  XXY=             13.1838  XXZ=             -0.0253  XZZ=              2.6197  YZZ=              0.0462
  YYZ=             -0.0035  XYZ=              0.0080
 Hexadecapole moment (field-independent basis, Debye-Ang**3):
 XXXX=           -397.6476 YYYY=            -18.1016 ZZZZ=            -17.5469 XXXY=            -36.6074
 XXXZ=              0.1133 YYYX=             -4.1561 YYYZ=             -0.0042 ZZZX=             -0.0007
 ZZZY=             -0.0025 XXYY=            -63.7994 XXZZ=            -74.2200 YYZZ=             -6.0600
 XXYZ=             -0.0233 YYXZ=              0.0051 ZZXY=             -0.7926
 N-N= 5.112487616837D+01 E-N=-5.485677988259D+02  KE= 1.886431609908D+02
 Unable to Open any file for archive entry.
 1|1|UNPC-TABISEAL|FOpt|RB3LYP|Aug-CC-pVDZ|C1H2O2|17108|23-May-2023|0||
 # opt freq b3lyp/aug-cc-pvdz geom=connectivity||Title Card Required||0
 ,1|O,2.1037049583,-0.0486120463,0.0008398411|C,0.9812991552,0.10164487
 89,0.0015644619|O,-2.3185371938,-0.1285960566,0.0028814367|H,-2.787302
 9366,0.7140213656,-0.0051542263|H,-1.3805011731,0.1062053283,0.0034564
 267||Version=EM64W-G16RevC.01|State=1-A|HF=-189.7774561|RMSD=3.047e-00
 9|RMSF=5.940e-005|Dipole=0.465994,0.6530428,-0.0047191|Quadrupole=-1.5
 239174,1.316603,0.2073144,-3.2670029,0.0313297,-0.0103142|PG=C01 [X(C1
 H2O2)]||@
 The archive entry for this job was punched.


 THESE ARE THE TIMES THAT TRY MENS SOULS.
 THE SUMMER SOLDIER AND THE SUNSHINE PATRIOT WILL IN THIS CRISIS,
 SHRINK FROM THE SERVICE OF HIS COUNTRY.  BUT HE THAT STANDS NOW,
 DESERVES THE LOVE AND THANKS OF MAN AND WOMAN.
 TYRANNY, LIKE HELL, IS NOT EASILY CONQUERED,
 YET WE HAVE THIS CONSOLATION WITH US,
 THAT THE HARDER THE CONFLICT, THE MORE GLORIOUS THE TRIUMPH.
 WHAT WE OBTAIN TOO CHEAP, WE ESTEEM TOO LIGHTLY, 
 'TIS DEARNESS ONLY THAT GIVES EVERYTHING ITS VALUE.

                                              -- TOM PAINE
 Job cpu time:       0 days  0 hours  1 minutes 28.0 seconds.
 Elapsed time:       0 days  0 hours  1 minutes 18.8 seconds.
 File lengths (MBytes):  RWF=     10 Int=      0 D2E=      0 Chk=      2 Scr=      1
 Normal termination of Gaussian 16 at Tue May 23 16:49:59 2023.
 Link1:  Proceeding to internal job step number  2.
 ----------------------------------------------------------------------
 #N Geom=AllCheck Guess=TCheck SCRF=Check GenChk RB3LYP/Aug-CC-pVDZ Fre
 q
 ----------------------------------------------------------------------
 1/10=4,29=7,30=1,38=1,40=1/1,3;
 2/12=2,40=1/2;
 3/5=16,7=10,11=2,14=-4,25=1,30=1,70=2,71=2,74=-5,116=1,140=1/1,2,3;
 4/5=101/1;
 5/5=2,38=6,98=1/2;
 8/6=4,10=90,11=11/1;
 11/6=1,8=1,9=11,15=111,16=1/1,2,10;
 10/6=1/2;
 6/7=2,8=2,9=2,10=2,28=1/1;
 7/8=1,10=1,25=1/1,2,3,16;
 1/10=4,30=1/3;
 99//99;
 Structure from the checkpoint file:  "C:\Calculation\20230510.2\(CO)1(H2O)1\2.chk"
 -------------------
 Title Card Required
 -------------------
 Charge =  0 Multiplicity = 1
 Redundant internal coordinates found in file.  (old form).
 O,0,2.1037049583,-0.0486120463,0.0008398411
 C,0,0.9812991552,0.1016448789,0.0015644619
 O,0,-2.3185371938,-0.1285960566,0.0028814367
 H,0,-2.7873029366,0.7140213656,-0.0051542263
 H,0,-1.3805011731,0.1062053283,0.0034564267
 Recover connectivity data from disk.

 GradGradGradGradGradGradGradGradGradGradGradGradGradGradGradGradGradGrad
 Berny optimization.
 Initialization pass.
                           ----------------------------
                           !    Initial Parameters    !
                           ! (Angstroms and Degrees)  !
 --------------------------                            --------------------------
 ! Name  Definition              Value          Derivative Info.                !
 --------------------------------------------------------------------------------
 ! R1    R(1,2)                  1.1324         calculate D2E/DX2 analytically  !
 ! R2    R(2,5)                  2.3618         calculate D2E/DX2 analytically  !
 ! R3    R(3,4)                  0.9643         calculate D2E/DX2 analytically  !
 ! R4    R(3,5)                  0.967          calculate D2E/DX2 analytically  !
 ! A1    A(4,3,5)              105.0348         calculate D2E/DX2 analytically  !
 ! A2    L(1,2,5,-3,-1)        172.4858         calculate D2E/DX2 analytically  !
 ! A3    L(1,2,5,-2,-2)        179.9911         calculate D2E/DX2 analytically  !
 ! A4    L(2,5,3,4,-1)         194.1618         calculate D2E/DX2 analytically  !
 ! A5    L(2,5,3,4,-2)         179.4994         calculate D2E/DX2 analytically  !
 --------------------------------------------------------------------------------
 Trust Radius=3.00D-01 FncErr=1.00D-07 GrdErr=1.00D-07 EigMax=2.50D+02 EigMin=1.00D-04
 Number of steps in this run=      2 maximum allowed number of steps=      2.
 GradGradGradGradGradGradGradGradGradGradGradGradGradGradGradGradGradGrad

                          Input orientation:                          
 ---------------------------------------------------------------------
 Center     Atomic      Atomic             Coordinates (Angstroms)
 Number     Number       Type             X           Y           Z
 ---------------------------------------------------------------------
      1          8           0        2.103705   -0.048612    0.000840
      2          6           0        0.981299    0.101645    0.001564
      3          8           0       -2.318537   -0.128596    0.002881
      4          1           0       -2.787303    0.714021   -0.005154
      5          1           0       -1.380501    0.106205    0.003456
 ---------------------------------------------------------------------
                    Distance matrix (angstroms):
                    1          2          3          4          5
     1  O    0.000000
     2  C    1.132419   0.000000
     3  O    4.422966   3.307859   0.000000
     4  H    4.950112   3.818038   0.964267   0.000000
     5  H    3.487645   2.361805   0.966977   1.532516   0.000000
 Stoichiometry    CH2O2
 Framework group  C1[X(CH2O2)]
 Deg. of freedom     9
 Full point group                 C1      NOp   1
 Largest Abelian subgroup         C1      NOp   1
 Largest concise Abelian subgroup C1      NOp   1
                         Standard orientation:                         
 ---------------------------------------------------------------------
 Center     Atomic      Atomic             Coordinates (Angstroms)
 Number     Number       Type             X           Y           Z
 ---------------------------------------------------------------------
      1          8           0        2.103634   -0.049776   -0.000645
      2          6           0        0.981275    0.100819    0.000996
      3          8           0       -2.318633   -0.128400   -0.000176
      4          1           0       -2.787136    0.714400   -0.001814
      5          1           0       -1.380524    0.106098    0.002412
 ---------------------------------------------------------------------
 Rotational constants (GHZ):         555.6886834           2.8434994           2.8290239
 Standard basis: Aug-CC-pVDZ (5D, 7F)
 There are    93 symmetry adapted cartesian basis functions of A   symmetry.
 There are    87 symmetry adapted basis functions of A   symmetry.
    87 basis functions,   151 primitive gaussians,    93 cartesian basis functions
    12 alpha electrons       12 beta electrons
       nuclear repulsion energy        51.1248761684 Hartrees.
 NAtoms=    5 NActive=    5 NUniq=    5 SFac= 1.00D+00 NAtFMM=   60 NAOKFM=F Big=F
 Integral buffers will be    131072 words long.
 Raffenetti 2 integral format.
 Two-electron integral symmetry is turned on.
 One-electron integrals computed using PRISM.
 NBasis=    87 RedAO= T EigKep=  1.34D-03  NBF=    87
 NBsUse=    87 1.00D-06 EigRej= -1.00D+00 NBFU=    87
 Initial guess from the checkpoint file:  "C:\Calculation\20230510.2\(CO)1(H2O)1\2.chk"
 B after Tr=     0.000000    0.000000    0.000000
         Rot=    1.000000    0.000000    0.000000    0.000000 Ang=   0.00 deg.
 Keep R1 ints in memory in canonical form, NReq=8247791.
 Requested convergence on RMS density matrix=1.00D-08 within 128 cycles.
 Requested convergence on MAX density matrix=1.00D-06.
 Requested convergence on             energy=1.00D-06.
 No special actions if energy rises.
 SCF Done:  E(RB3LYP) =  -189.777456087     A.U. after    1 cycles
            NFock=  1  Conv=0.93D-09     -V/T= 2.0060
 DoSCS=F DFT=T ScalE2(SS,OS)=  1.000000  1.000000
 Range of M.O.s used for correlation:     1    87
 NBasis=    87 NAE=    12 NBE=    12 NFC=     0 NFV=     0
 NROrb=     87 NOA=    12 NOB=    12 NVA=    75 NVB=    75
 Symmetrizing basis deriv contribution to polar:
 IMax=3 JMax=2 DiffMx= 0.00D+00
 G2DrvN: will do     6 centers at a time, making    1 passes.
 Calling FoFCou, ICntrl=  3107 FMM=F I1Cent=   0 AccDes= 0.00D+00.
 End of G2Drv F.D. properties file   721 does not exist.
 End of G2Drv F.D. properties file   722 does not exist.
 End of G2Drv F.D. properties file   788 does not exist.
          IDoAtm=11111
          Differentiating once with respect to electric field.
                with respect to dipole field.
          Differentiating once with respect to nuclear coordinates.
 Keep R1 ints in memory in canonical form, NReq=8249159.
          There are    18 degrees of freedom in the 1st order CPHF.  IDoFFX=6 NUNeed=     3.
     15 vectors produced by pass  0 Test12= 5.00D-15 5.56D-09 XBig12= 1.85D+01 2.11D+00.
 AX will form    15 AO Fock derivatives at one time.
     15 vectors produced by pass  1 Test12= 5.00D-15 5.56D-09 XBig12= 1.60D+01 1.49D+00.
     15 vectors produced by pass  2 Test12= 5.00D-15 5.56D-09 XBig12= 1.35D-01 8.81D-02.
     15 vectors produced by pass  3 Test12= 5.00D-15 5.56D-09 XBig12= 2.08D-04 3.64D-03.
     15 vectors produced by pass  4 Test12= 5.00D-15 5.56D-09 XBig12= 4.05D-07 1.80D-04.
     11 vectors produced by pass  5 Test12= 5.00D-15 5.56D-09 XBig12= 6.62D-10 7.87D-06.
      3 vectors produced by pass  6 Test12= 5.00D-15 5.56D-09 XBig12= 5.87D-13 1.45D-07.
 InvSVY:  IOpt=1 It=  1 EMax= 1.33D-15
 Solved reduced A of dimension    89 with    15 vectors.
 Isotropic polarizability for W=    0.000000       23.01 Bohr**3.
 End of Minotr F.D. properties file   721 does not exist.
 End of Minotr F.D. properties file   722 does not exist.
 End of Minotr F.D. properties file   788 does not exist.

 **********************************************************************

            Population analysis using the SCF Density.

 **********************************************************************

 Orbital symmetries:
       Occupied  (A) (A) (A) (A) (A) (A) (A) (A) (A) (A) (A) (A)
       Virtual   (A) (A) (A) (A) (A) (A) (A) (A) (A) (A) (A) (A)
                 (A) (A) (A) (A) (A) (A) (A) (A) (A) (A) (A) (A)
                 (A) (A) (A) (A) (A) (A) (A) (A) (A) (A) (A) (A)
                 (A) (A) (A) (A) (A) (A) (A) (A) (A) (A) (A) (A)
                 (A) (A) (A) (A) (A) (A) (A) (A) (A) (A) (A) (A)
                 (A) (A) (A) (A) (A) (A) (A) (A) (A) (A) (A) (A)
                 (A) (A) (A)
 The electronic state is 1-A.
 Alpha  occ. eigenvalues --  -19.27836 -19.14980 -10.33103  -1.19142  -1.01128
 Alpha  occ. eigenvalues --   -0.60064  -0.53094  -0.49736  -0.49735  -0.41099
 Alpha  occ. eigenvalues --   -0.38496  -0.31331
 Alpha virt. eigenvalues --   -0.05832  -0.05798  -0.01150   0.01507   0.05093
 Alpha virt. eigenvalues --    0.05747   0.05767   0.10410   0.12202   0.12971
 Alpha virt. eigenvalues --    0.14437   0.15225   0.17777   0.18629   0.20651
 Alpha virt. eigenvalues --    0.21825   0.24736   0.28528   0.29105   0.29497
 Alpha virt. eigenvalues --    0.30697   0.30903   0.32364   0.42942   0.47960
 Alpha virt. eigenvalues --    0.51198   0.53664   0.55009   0.55700   0.56202
 Alpha virt. eigenvalues --    0.60931   0.66813   0.70684   0.75311   0.84141
 Alpha virt. eigenvalues --    0.84973   0.86543   0.91700   0.96329   0.96365
 Alpha virt. eigenvalues --    0.96990   1.00072   1.07251   1.18069   1.23155
 Alpha virt. eigenvalues --    1.24661   1.26455   1.39017   1.39222   1.44767
 Alpha virt. eigenvalues --    1.47145   1.50268   1.68660   1.68686   1.76461
 Alpha virt. eigenvalues --    1.76811   1.87277   1.91192   2.06941   2.16234
 Alpha virt. eigenvalues --    2.19626   2.43592   2.46179   2.67117   2.75338
 Alpha virt. eigenvalues --    3.14899   3.15061   3.27214   3.27608   3.30254
 Alpha virt. eigenvalues --    3.33963   3.35725   3.63475   3.71188   3.90503
          Condensed to atoms (all electrons):
               1          2          3          4          5
     1  O    7.583743   0.586275  -0.000913   0.000101   0.002980
     2  C    0.586275   5.293596  -0.008728   0.000708  -0.019392
     3  O   -0.000913  -0.008728   7.573168   0.339108   0.282968
     4  H    0.000101   0.000708   0.339108   0.720813  -0.131067
     5  H    0.002980  -0.019392   0.282968  -0.131067   0.724599
 Mulliken charges:
               1
     1  O   -0.172187
     2  C    0.147541
     3  O   -0.185603
     4  H    0.070337
     5  H    0.139913
 Sum of Mulliken charges =   0.00000
 Mulliken charges with hydrogens summed into heavy atoms:
               1
     1  O   -0.172187
     2  C    0.147541
     3  O    0.024646
 APT charges:
               1
     1  O   -0.259598
     2  C    0.258267
     3  O   -0.541210
     4  H    0.244773
     5  H    0.297769
 Sum of APT charges =   0.00000
 APT charges with hydrogens summed into heavy atoms:
               1
     1  O   -0.259598
     2  C    0.258267
     3  O    0.001332
 Electronic spatial extent (au):  <R**2>=            378.8172
 Charge=              0.0000 electrons
 Dipole moment (field-independent basis, Debye):
    X=              1.1850    Y=              1.6595    Z=              0.0011  Tot=              2.0392
 Quadrupole moment (field-independent basis, Debye-Ang):
   XX=            -20.4379   YY=            -16.6117   ZZ=            -18.1067
   XY=             -4.3932   XZ=              0.0077   YZ=             -0.0033
 Traceless Quadrupole moment (field-independent basis, Debye-Ang):
   XX=             -2.0525   YY=              1.7737   ZZ=              0.2787
   XY=             -4.3932   XZ=              0.0077   YZ=             -0.0033
 Octapole moment (field-independent basis, Debye-Ang**2):
  XXX=             -4.7365  YYY=              0.6989  ZZZ=             -0.0050  XYY=             -1.3883
  XXY=             13.1838  XXZ=             -0.0253  XZZ=              2.6197  YZZ=              0.0462
  YYZ=             -0.0035  XYZ=              0.0080
 Hexadecapole moment (field-independent basis, Debye-Ang**3):
 XXXX=           -397.6476 YYYY=            -18.1016 ZZZZ=            -17.5469 XXXY=            -36.6074
 XXXZ=              0.1133 YYYX=             -4.1561 YYYZ=             -0.0042 ZZZX=             -0.0007
 ZZZY=             -0.0025 XXYY=            -63.7994 XXZZ=            -74.2200 YYZZ=             -6.0600
 XXYZ=             -0.0233 YYXZ=              0.0051 ZZXY=             -0.7926
 N-N= 5.112487616837D+01 E-N=-5.485677987865D+02  KE= 1.886431609607D+02
  Exact polarizability:      28.749      -0.880      20.367      -0.003       0.000      19.916
 Approx polarizability:      39.035      -1.817      27.399      -0.006       0.000      25.296
 Calling FoFJK, ICntrl=    100127 FMM=F ISym2X=0 I1Cent= 0 IOpClX= 0 NMat=1 NMatS=1 NMatT=0.
 Full mass-weighted force constant matrix:
 Low frequencies ---    0.0004    0.0012    0.0013    4.2984    4.5470   16.4096
 Low frequencies ---   59.9839   74.5881   96.6470
 Diagonal vibrational polarizability:
      120.3363052      14.3204144      71.3077921
 Harmonic frequencies (cm**-1), IR intensities (KM/Mole), Raman scattering
 activities (A**4/AMU), depolarization ratios for plane and unpolarized
 incident light, reduced masses (AMU), force constants (mDyne/A),
 and normal coordinates:
                      1                      2                      3
                      A                      A                      A
 Frequencies --     59.9801                74.5818                96.6468
 Red. masses --      6.4036                 2.9030                 6.7174
 Frc consts  --      0.0136                 0.0095                 0.0370
 IR Inten    --     10.6628                12.2448                 3.0002
  Atom  AN      X      Y      Z        X      Y      Z        X      Y      Z
     1   8    -0.18  -0.29   0.00     0.00   0.00  -0.20    -0.25   0.14   0.00
     2   6    -0.07   0.49   0.00     0.00   0.00   0.34    -0.30  -0.27   0.00
     3   8     0.24  -0.08   0.00     0.00   0.00  -0.02     0.42   0.06   0.00
     4   1    -0.33  -0.40   0.01     0.00   0.00  -0.88     0.57   0.14   0.00
     5   1     0.09   0.55   0.00     0.00   0.00   0.26     0.46  -0.13   0.00
                      4                      5                      6
                      A                      A                      A
 Frequencies --    220.1959               362.0272              1623.7804
 Red. masses --      1.1608                 1.0780                 1.0806
 Frc consts  --      0.0332                 0.0832                 1.6787
 IR Inten    --     81.0662                58.6222                46.5990
  Atom  AN      X      Y      Z        X      Y      Z        X      Y      Z
     1   8     0.02   0.04   0.00     0.00   0.00   0.02     0.00   0.00   0.00
     2   6     0.00  -0.10   0.00     0.00   0.00  -0.07     0.00   0.00   0.00
     3   8     0.03   0.02   0.00     0.00   0.00  -0.03    -0.03  -0.06   0.00
     4   1    -0.61  -0.34   0.00     0.00   0.00  -0.10     0.60   0.34   0.00
     5   1    -0.14   0.69   0.00     0.00   0.00   0.99    -0.17   0.70   0.00
                      7                      8                      9
                      A                      A                      A
 Frequencies --   2201.2721              3770.8255              3888.2865
 Red. masses --     13.4275                 1.0469                 1.0805
 Frc consts  --     38.3349                 8.7707                 9.6250
 IR Inten    --     77.5331                79.6091               129.7323
  Atom  AN      X      Y      Z        X      Y      Z        X      Y      Z
     1   8    -0.59   0.08   0.00     0.00   0.00   0.00     0.00   0.00   0.00
     2   6     0.79  -0.11   0.00     0.00   0.00   0.00     0.00   0.00   0.00
     3   8     0.00   0.00   0.00    -0.03  -0.04   0.00     0.06  -0.04   0.00
     4   1     0.00   0.00   0.00    -0.30   0.45   0.00    -0.42   0.73   0.00
     5   1     0.01   0.02   0.00     0.82   0.16   0.00    -0.51  -0.14   0.00

 -------------------
 - Thermochemistry -
 -------------------
 Temperature   298.150 Kelvin.  Pressure   1.00000 Atm.
 Atom     1 has atomic number  8 and mass  15.99491
 Atom     2 has atomic number  6 and mass  12.00000
 Atom     3 has atomic number  8 and mass  15.99491
 Atom     4 has atomic number  1 and mass   1.00783
 Atom     5 has atomic number  1 and mass   1.00783
 Molecular mass:    46.00548 amu.
 Principal axes and moments of inertia in atomic units:
                           1         2         3
     Eigenvalues --     3.24776 634.69021 637.93777
           X            0.99992  -0.01240   0.00002
           Y            0.01240   0.99992  -0.00115
           Z           -0.00001   0.00115   1.00000
 This molecule is an asymmetric top.
 Rotational symmetry number  1.
 Rotational temperatures (Kelvin)     26.66885     0.13647     0.13577
 Rotational constants (GHZ):         555.68868     2.84350     2.82902
 Zero-point vibrational energy      73556.0 (Joules/Mol)
                                   17.58030 (Kcal/Mol)
 Warning -- explicit consideration of   5 degrees of freedom as
           vibrations may cause significant error
 Vibrational temperatures:     86.30   107.31   139.05   316.81   520.88
          (Kelvin)           2336.26  3167.14  5425.38  5594.38
 
 Zero-point correction=                           0.028016 (Hartree/Particle)
 Thermal correction to Energy=                    0.034069
 Thermal correction to Enthalpy=                  0.035013
 Thermal correction to Gibbs Free Energy=        -0.000285
 Sum of electronic and zero-point Energies=           -189.749440
 Sum of electronic and thermal Energies=              -189.743387
 Sum of electronic and thermal Enthalpies=            -189.742443
 Sum of electronic and thermal Free Energies=         -189.777741
 
                     E (Thermal)             CV                S
                      KCal/Mol        Cal/Mol-Kelvin    Cal/Mol-Kelvin
 Total                   21.379             15.267             74.291
 Electronic               0.000              0.000              0.000
 Translational            0.889              2.981             37.404
 Rotational               0.889              2.981             21.802
 Vibrational             19.601              9.305             15.086
 Vibration     1          0.597              1.973              4.458
 Vibration     2          0.599              1.966              4.029
 Vibration     3          0.603              1.952              3.521
 Vibration     4          0.647              1.810              1.957
 Vibration     5          0.736              1.550              1.113
                       Q            Log10(Q)             Ln(Q)
 Total Bot       0.135208D+01          0.131003          0.301646
 Total V=0       0.104100D+14         13.017451         29.973788
 Vib (Bot)       0.849234D-11        -11.070972        -25.491856
 Vib (Bot)    1  0.344286D+01          0.536919          1.236303
 Vib (Bot)    2  0.276355D+01          0.441467          1.016515
 Vib (Bot)    3  0.212483D+01          0.327325          0.753693
 Vib (Bot)    4  0.898233D+00         -0.046611         -0.107326
 Vib (Bot)    5  0.505604D+00         -0.296189         -0.682001
 Vib (V=0)       0.653845D+02          1.815475          4.180286
 Vib (V=0)    1  0.397898D+01          0.599772          1.381025
 Vib (V=0)    2  0.330841D+01          0.519620          1.196469
 Vib (V=0)    3  0.268287D+01          0.428599          0.986887
 Vib (V=0)    4  0.152802D+01          0.184129          0.423972
 Vib (V=0)    5  0.121108D+01          0.083173          0.191513
 Electronic      0.100000D+01          0.000000          0.000000
 Translational   0.122650D+08          7.088668         16.322262
 Rotational      0.129810D+05          4.113307          9.471240
 ***** Axes restored to original set *****
 -------------------------------------------------------------------
 Center     Atomic                   Forces (Hartrees/Bohr)
 Number     Number              X              Y              Z
 -------------------------------------------------------------------
      1        8          -0.000149268    0.000020617   -0.000001638
      2        6           0.000139563   -0.000022891    0.000006679
      3        8           0.000061209    0.000045376    0.000006823
      4        1           0.000004424   -0.000025114    0.000002541
      5        1          -0.000055928   -0.000017987   -0.000014403
 -------------------------------------------------------------------
 Cartesian Forces:  Max     0.000149268 RMS     0.000059399
 FormGI is forming the generalized inverse of G from B-inverse, IUseBI=4.

 GradGradGradGradGradGradGradGradGradGradGradGradGradGradGradGradGradGrad
 Berny optimization.
 Internal  Forces:  Max     0.000150685 RMS     0.000056240
 Search for a local minimum.
 Step number   1 out of a maximum of    2
 All quantities printed in internal units (Hartrees-Bohrs-Radians)
 Second derivative matrix not updated -- analytic derivatives used.
 The second derivative matrix:
                          R1        R2        R3        R4        A1
           R1           1.25380
           R2          -0.00203   0.00353
           R3          -0.00054  -0.00023   0.53389
           R4           0.00234   0.00326  -0.00587   0.52326
           A1           0.00009   0.00143   0.02935   0.02760   0.15256
           A2          -0.00068  -0.00012  -0.00012  -0.00057  -0.00135
           A3           0.00000   0.00000  -0.00001   0.00000   0.00000
           A4          -0.00078   0.00002  -0.00034  -0.00017  -0.00220
           A5           0.00001   0.00001  -0.00001   0.00001   0.00002
                          A2        A3        A4        A5
           A2           0.00587
           A3           0.00000   0.00578
           A4           0.00193   0.00003   0.00373
           A5          -0.00002   0.00124   0.00002   0.00103
 ITU=  0
     Eigenvalues ---    0.00073   0.00257   0.00350   0.00608   0.00698
     Eigenvalues ---    0.14828   0.52419   0.53730   1.25381
 Angle between quadratic step and forces=  84.97 degrees.
 Linear search not attempted -- first point.
 Iteration  1 RMS(Cart)=  0.00272821 RMS(Int)=  0.00001000
 Iteration  2 RMS(Cart)=  0.00001459 RMS(Int)=  0.00000000
 Iteration  3 RMS(Cart)=  0.00000000 RMS(Int)=  0.00000000
 Variable       Old X    -DE/DX   Delta X   Delta X   Delta X     New X
                                 (Linear)    (Quad)   (Total)
    R1        2.13996  -0.00015   0.00000  -0.00012  -0.00012   2.13984
    R2        4.46317  -0.00001   0.00000  -0.00285  -0.00285   4.46032
    R3        1.82220  -0.00002   0.00000  -0.00006  -0.00006   1.82214
    R4        1.82732  -0.00007   0.00000  -0.00012  -0.00012   1.82720
    A1        1.83320   0.00002   0.00000   0.00019   0.00019   1.83340
    A2        3.01044   0.00000   0.00000  -0.00069  -0.00069   3.00975
    A3        3.14144   0.00000   0.00000  -0.00125  -0.00125   3.14018
    A4        3.38876   0.00001   0.00000   0.00277   0.00277   3.39154
    A5        3.13286   0.00001   0.00000   0.00870   0.00870   3.14156
         Item               Value     Threshold  Converged?
 Maximum Force            0.000151     0.000450     YES
 RMS     Force            0.000056     0.000300     YES
 Maximum Displacement     0.004036     0.001800     NO 
 RMS     Displacement     0.002738     0.001200     NO 
 Predicted change in Energy=-7.152904D-08
                           ----------------------------
                           ! Non-Optimized Parameters !
                           ! (Angstroms and Degrees)  !
 --------------------------                            --------------------------
 ! Name  Definition              Value          Derivative Info.                !
 --------------------------------------------------------------------------------
 ! R1    R(1,2)                  1.1324         -DE/DX =   -0.0002              !
 ! R2    R(2,5)                  2.3603         -DE/DX =    0.0                 !
 ! R3    R(3,4)                  0.9642         -DE/DX =    0.0                 !
 ! R4    R(3,5)                  0.9669         -DE/DX =   -0.0001              !
 ! A1    A(4,3,5)              105.0459         -DE/DX =    0.0                 !
 ! A2    L(1,2,5,-3,-1)        172.4463         -DE/DX =    0.0                 !
 ! A3    L(1,2,5,-2,-2)        179.9193         -DE/DX =    0.0                 !
 ! A4    L(2,5,3,4,-1)         194.3207         -DE/DX =    0.0                 !
 ! A5    L(2,5,3,4,-2)         179.998          -DE/DX =    0.0                 !
 --------------------------------------------------------------------------------
 GradGradGradGradGradGradGradGradGradGradGradGradGradGradGradGradGradGrad


 ----------------------------------------------------------------------

 Electric dipole moment (input orientation):
 (Debye = 10**-18 statcoulomb cm , SI units = C m)
                  (au)            (Debye)         (10**-30 SI)
   Tot        0.802270D+00      0.203917D+01      0.680193D+01
   x          0.465994D+00      0.118444D+01      0.395086D+01
   y          0.653043D+00      0.165987D+01      0.553673D+01
   z         -0.471874D-02     -0.119938D-01     -0.400071D-01

 Dipole polarizability, Alpha (input orientation).
 (esu units = cm**3 , SI units = C**2 m**2 J**-1)
 Alpha(0;0):
               (au)            (10**-24 esu)      (10**-40 SI)
   iso        0.230107D+02      0.340983D+01      0.379395D+01
   aniso      0.875053D+01      0.129669D+01      0.144277D+01
   xx         0.287498D+02      0.426028D+01      0.474021D+01
   yx        -0.877599D+00     -0.130047D+00     -0.144697D+00
   yy         0.203661D+02      0.301794D+01      0.335791D+01
   zx         0.209767D-02      0.310843D-03      0.345859D-03
   zy        -0.323223D-02     -0.478967D-03     -0.532922D-03
   zz         0.199162D+02      0.295128D+01      0.328374D+01

 ----------------------------------------------------------------------

 Dipole orientation:
     8          2.66903090         -1.92264322          2.23431693
     6          1.13198148         -0.82029617          1.23344470
     8         -2.78204511          1.99832183         -2.74275185
     1         -4.11573804          2.96301620         -1.96106153
     1         -1.82266227          1.30234756         -1.35195866

 Electric dipole moment (dipole orientation):
 (Debye = 10**-18 statcoulomb cm , SI units = C m)
                  (au)            (Debye)         (10**-30 SI)
   Tot        0.802270D+00      0.203917D+01      0.680193D+01
   x          0.000000D+00      0.000000D+00      0.000000D+00
   y          0.000000D+00      0.000000D+00      0.000000D+00
   z          0.802270D+00      0.203917D+01      0.680193D+01

 Dipole polarizability, Alpha (dipole orientation).
 (esu units = cm**3 , SI units = C**2 m**2 J**-1)
 Alpha(0;0):
               (au)            (10**-24 esu)      (10**-40 SI)
   iso        0.230107D+02      0.340983D+01      0.379395D+01
   aniso      0.875053D+01      0.129669D+01      0.144277D+01
   xx         0.244212D+02      0.361886D+01      0.402652D+01
   yx        -0.323985D+01     -0.480097D+00     -0.534180D+00
   yy         0.222461D+02      0.329654D+01      0.366789D+01
   zx         0.298678D+01      0.442595D+00      0.492454D+00
   zy        -0.214724D+01     -0.318189D+00     -0.354033D+00
   zz         0.223647D+02      0.331411D+01      0.368745D+01

 ----------------------------------------------------------------------
 Unable to Open any file for archive entry.
 1|1|UNPC-TABISEAL|Freq|RB3LYP|Aug-CC-pVDZ|C1H2O2|17108|23-May-2023|0||
 #N Geom=AllCheck Guess=TCheck SCRF=Check GenChk RB3LYP/Aug-CC-pVDZ Fre
 q||Title Card Required||0,1|O,2.1037049583,-0.0486120463,0.0008398411|
 C,0.9812991552,0.1016448789,0.0015644619|O,-2.3185371938,-0.1285960566
 ,0.0028814367|H,-2.7873029366,0.7140213656,-0.0051542263|H,-1.38050117
 31,0.1062053283,0.0034564267||Version=EM64W-G16RevC.01|State=1-A|HF=-1
 89.7774561|RMSD=9.320e-010|RMSF=5.940e-005|ZeroPoint=0.028016|Thermal=
 0.0340693|ETot=-189.7433868|HTot=-189.7424426|GTot=-189.7777409|Dipole
 =0.4659938,0.6530428,-0.0047187|DipoleDeriv=-0.770862,0.0889027,0.0004
 477,0.1095225,-0.0090681,-0.0000722,0.0005517,-0.000068,0.0011348,0.68
 50056,-0.0892081,-0.0003514,-0.0994362,0.0477721,0.0001157,-0.0004629,
 0.0001113,0.0420229,-0.6372918,0.0439857,0.000002,0.035356,-0.3491016,
 -0.0022562,0.000044,-0.0022409,-0.6372372,0.2870411,0.0179335,-0.00024
 ,0.0133901,0.1243071,0.0016719,-0.000231,0.0016858,0.3229714,0.4361071
 ,-0.0616138,0.0001417,-0.0588324,0.1860905,0.0005408,0.0000982,0.00051
 18,0.271108|Polar=28.7498222,-0.8775992,20.3660913,0.0020977,-0.003232
 2,19.9161955|Quadrupole=-1.523917,1.3166028,0.2073141,-3.2670032,0.031
 3302,-0.0103142|PG=C01 [X(C1H2O2)]|NImag=0||1.23166246,-0.16502069,0.0
 2348513,-0.00079306,0.00010756,0.00142609,-1.23368417,0.16523284,0.000
 79139,1.23923402,0.16523755,-0.02433977,-0.00010906,-0.16543230,0.0258
 7339,0.00079515,-0.00010959,-0.00235206,-0.00078826,0.00011356,0.00416
 193,-0.00256767,0.00047463,0.00000414,-0.00021012,-0.00047256,-0.00000
 630,0.63365760,0.00026252,-0.00091209,0.00000058,0.00028107,0.00209117
 ,-0.00000388,-0.08688542,0.48409175,-0.00000288,0.00000152,-0.00076044
 ,0.00000055,-0.00000446,0.00167354,0.00236365,-0.00412674,0.00113672,0
 .00026121,0.00030001,-0.00000340,-0.00083485,-0.00072954,0.00000709,-0
 .15310720,0.17122827,-0.00178972,0.17495923,-0.00046975,0.00018268,0.0
 0000024,-0.00011366,-0.00030557,0.00000278,0.22993043,-0.40996502,0.00
 391518,-0.21576982,0.40485174,0.00000519,-0.00000135,0.00003357,0.0000
 0097,0.00000378,0.00009887,-0.00226194,0.00375992,0.00018076,0.0022036
 1,-0.00383321,0.00014033,0.00432817,-0.00098680,0.00000093,-0.00450488
 ,0.00139686,-0.00000768,-0.47777260,-0.08488645,-0.00057159,-0.0212783
 9,-0.01357721,0.00005216,0.49922770,-0.00000963,0.00158406,0.00000068,
 0.00003204,-0.00331922,-0.00000289,-0.14304709,-0.07530580,0.00021451,
 0.04497108,0.00523617,0.00007087,0.09805360,0.07180479,-0.00000440,0.0
 0000187,0.00165284,-0.00000465,-0.00000382,-0.00358227,-0.00009955,0.0
 0037011,-0.00223058,-0.00041757,-0.00008499,-0.00045353,0.00052617,-0.
 00028317,0.00461354||0.00014927,-0.00002062,0.00000164,-0.00013956,0.0
 0002289,-0.00000668,-0.00006121,-0.00004538,-0.00000682,-0.00000442,0.
 00002511,-0.00000254,0.00005593,0.00001799,0.00001440|||@
 The archive entry for this job was punched.


 THE PROGRESS OF RIVERS TO THE SEA IS NOT AS RAPID
 AS THAT OF MAN TO ERROR.
                                              -- VOLTAIRE
 Job cpu time:       0 days  0 hours  1 minutes 19.0 seconds.
 Elapsed time:       0 days  0 hours  1 minutes 16.3 seconds.
 File lengths (MBytes):  RWF=     10 Int=      0 D2E=      0 Chk=      2 Scr=      1
 Normal termination of Gaussian 16 at Tue May 23 16:51:18 2023.
