 Entering Link 1 = C:\G16W\l1.exe PID=     13932.
  
 Copyright (c) 1988-2019, Gaussian, Inc.  All Rights Reserved.
  
 This is part of the Gaussian(R) 16 program.  It is based on
 the Gaussian(R) 09 system (copyright 2009, Gaussian, Inc.),
 the Gaussian(R) 03 system (copyright 2003, Gaussian, Inc.),
 the Gaussian(R) 98 system (copyright 1998, Gaussian, Inc.),
 the Gaussian(R) 94 system (copyright 1995, Gaussian, Inc.),
 the Gaussian 92(TM) system (copyright 1992, Gaussian, Inc.),
 the Gaussian 90(TM) system (copyright 1990, Gaussian, Inc.),
 the Gaussian 88(TM) system (copyright 1988, Gaussian, Inc.),
 the Gaussian 86(TM) system (copyright 1986, Carnegie Mellon
 University), and the Gaussian 82(TM) system (copyright 1983,
 Carnegie Mellon University). Gaussian is a federally registered
 trademark of Gaussian, Inc.
  
 This software contains proprietary and confidential information,
 including trade secrets, belonging to Gaussian, Inc.
  
 This software is provided under written license and may be
 used, copied, transmitted, or stored only in accord with that
 written license.
  
 The following legend is applicable only to US Government
 contracts under FAR:
  
                    RESTRICTED RIGHTS LEGEND
  
 Use, reproduction and disclosure by the US Government is
 subject to restrictions as set forth in subparagraphs (a)
 and (c) of the Commercial Computer Software - Restricted
 Rights clause in FAR 52.227-19.
  
 Gaussian, Inc.
 340 Quinnipiac St., Bldg. 40, Wallingford CT 06492
  
  
 ---------------------------------------------------------------
 Warning -- This program may not be used in any manner that
 competes with the business of Gaussian, Inc. or will provide
 assistance to any competitor of Gaussian, Inc.  The licensee
 of this program is prohibited from giving any competitor of
 Gaussian, Inc. access to this program.  By using this program,
 the user acknowledges that Gaussian, Inc. is engaged in the
 business of creating and licensing software in the field of
 computational chemistry and represents and warrants to the
 licensee that it is not a competitor of Gaussian, Inc. and that
 it will not use this program in any manner prohibited above.
 ---------------------------------------------------------------
  

 Cite this work as:
 Gaussian 16, Revision C.01,
 M. J. Frisch, G. W. Trucks, H. B. Schlegel, G. E. Scuseria, 
 M. A. Robb, J. R. Cheeseman, G. Scalmani, V. Barone, 
 G. A. Petersson, H. Nakatsuji, X. Li, M. Caricato, A. V. Marenich, 
 J. Bloino, B. G. Janesko, R. Gomperts, B. Mennucci, H. P. Hratchian, 
 J. V. Ortiz, A. F. Izmaylov, J. L. Sonnenberg, D. Williams-Young, 
 F. Ding, F. Lipparini, F. Egidi, J. Goings, B. Peng, A. Petrone, 
 T. Henderson, D. Ranasinghe, V. G. Zakrzewski, J. Gao, N. Rega, 
 G. Zheng, W. Liang, M. Hada, M. Ehara, K. Toyota, R. Fukuda, 
 J. Hasegawa, M. Ishida, T. Nakajima, Y. Honda, O. Kitao, H. Nakai, 
 T. Vreven, K. Throssell, J. A. Montgomery, Jr., J. E. Peralta, 
 F. Ogliaro, M. J. Bearpark, J. J. Heyd, E. N. Brothers, K. N. Kudin, 
 V. N. Staroverov, T. A. Keith, R. Kobayashi, J. Normand, 
 K. Raghavachari, A. P. Rendell, J. C. Burant, S. S. Iyengar, 
 J. Tomasi, M. Cossi, J. M. Millam, M. Klene, C. Adamo, R. Cammi, 
 J. W. Ochterski, R. L. Martin, K. Morokuma, O. Farkas, 
 J. B. Foresman, and D. J. Fox, Gaussian, Inc., Wallingford CT, 2019.
 
 ******************************************
 Gaussian 16:  EM64W-G16RevC.01 30-May-2019
                23-May-2023 
 ******************************************
 %chk=C:\Calculation\20230510.2\(CO)1(H2O)1\4.chk
 ----------------------------------------------
 # opt freq b3lyp/aug-cc-pvdz geom=connectivity
 ----------------------------------------------
 1/18=20,19=15,26=3,38=1,57=2/1,3;
 2/9=110,12=2,17=6,18=5,40=1/2;
 3/5=16,7=10,11=2,25=1,30=1,71=1,74=-5/1,2,3;
 4//1;
 5/5=2,38=5/2;
 6/7=2,8=2,9=2,10=2,28=1/1;
 7//1,2,3,16;
 1/18=20,19=15,26=3/3(2);
 2/9=110/2;
 99//99;
 2/9=110/2;
 3/5=16,7=10,11=2,25=1,30=1,71=1,74=-5/1,2,3;
 4/5=5,16=3,69=1/1;
 5/5=2,38=5/2;
 7//1,2,3,16;
 1/18=20,19=15,26=3/3(-5);
 2/9=110/2;
 6/7=2,8=2,9=2,10=2,19=2,28=1/1;
 99/9=1/99;
 -------------------
 Title Card Required
 -------------------
 Symbolic Z-matrix:
 Charge =  0 Multiplicity = 1
 C                     1.01194   0.44217   0.00222 
 O                     1.8976   -0.26471  -0.00206 
 O                    -2.08499  -0.16447   0.00412 
 H                    -1.56936   0.65159  -0.00191 
 H                    -3.0031    0.12887  -0.02784 
 

 GradGradGradGradGradGradGradGradGradGradGradGradGradGradGradGradGradGrad
 Berny optimization.
 Initialization pass.
                           ----------------------------
                           !    Initial Parameters    !
                           ! (Angstroms and Degrees)  !
 --------------------------                            --------------------------
 ! Name  Definition              Value          Derivative Info.                !
 --------------------------------------------------------------------------------
 ! R1    R(1,2)                  1.1332         estimate D2E/DX2                !
 ! R2    R(2,3)                  3.9839         estimate D2E/DX2                !
 ! R3    R(3,4)                  0.9653         estimate D2E/DX2                !
 ! R4    R(3,5)                  0.9644         estimate D2E/DX2                !
 ! A1    A(1,2,3)               37.153          estimate D2E/DX2                !
 ! A2    A(2,3,4)               59.1548         estimate D2E/DX2                !
 ! A3    A(2,3,5)              163.6044         estimate D2E/DX2                !
 ! A4    A(4,3,5)              104.547          estimate D2E/DX2                !
 ! D1    D(1,2,3,4)              0.6046         estimate D2E/DX2                !
 ! D2    D(1,2,3,5)              7.288          estimate D2E/DX2                !
 ! D3    D(2,3,4,5)            178.055          estimate D2E/DX2                !
 --------------------------------------------------------------------------------
 Trust Radius=3.00D-01 FncErr=1.00D-07 GrdErr=1.00D-06 EigMax=2.50D+02 EigMin=1.00D-04
 Number of steps in this run=     21 maximum allowed number of steps=    100.
 GradGradGradGradGradGradGradGradGradGradGradGradGradGradGradGradGradGrad

                          Input orientation:                          
 ---------------------------------------------------------------------
 Center     Atomic      Atomic             Coordinates (Angstroms)
 Number     Number       Type             X           Y           Z
 ---------------------------------------------------------------------
      1          6           0        1.011940    0.442166    0.002217
      2          8           0        1.897597   -0.264709   -0.002064
      3          8           0       -2.084994   -0.164473    0.004120
      4          1           0       -1.569360    0.651591   -0.001908
      5          1           0       -3.003096    0.128870   -0.027839
 ---------------------------------------------------------------------
                    Distance matrix (angstroms):
                    1          2          3          4          5
     1  C    0.000000
     2  O    1.133172   0.000000
     3  O    3.155791   3.983857   0.000000
     4  H    2.589785   3.586000   0.965337   0.000000
     5  H    4.027352   4.916538   0.964355   1.526272   0.000000
 Stoichiometry    CH2O2
 Framework group  C1[X(CH2O2)]
 Deg. of freedom     9
 Full point group                 C1      NOp   1
 Largest Abelian subgroup         C1      NOp   1
 Largest concise Abelian subgroup C1      NOp   1
                         Standard orientation:                         
 ---------------------------------------------------------------------
 Center     Atomic      Atomic             Coordinates (Angstroms)
 Number     Number       Type             X           Y           Z
 ---------------------------------------------------------------------
      1          6           0       -1.011940    0.442166   -0.002217
      2          8           0       -1.897596   -0.264709    0.002064
      3          8           0        2.084994   -0.164473   -0.004120
      4          1           0        1.569360    0.651591    0.001908
      5          1           0        3.003096    0.128870    0.027839
 ---------------------------------------------------------------------
 Rotational constants (GHZ):         117.0542046           3.3567325           3.2632023
 Standard basis: Aug-CC-pVDZ (5D, 7F)
 There are    93 symmetry adapted cartesian basis functions of A   symmetry.
 There are    87 symmetry adapted basis functions of A   symmetry.
    87 basis functions,   151 primitive gaussians,    93 cartesian basis functions
    12 alpha electrons       12 beta electrons
       nuclear repulsion energy        52.1434160229 Hartrees.
 NAtoms=    5 NActive=    5 NUniq=    5 SFac= 1.00D+00 NAtFMM=   60 NAOKFM=F Big=F
 Integral buffers will be    131072 words long.
 Raffenetti 2 integral format.
 Two-electron integral symmetry is turned on.
 One-electron integrals computed using PRISM.
 NBasis=    87 RedAO= T EigKep=  1.89D-03  NBF=    87
 NBsUse=    87 1.00D-06 EigRej= -1.00D+00 NBFU=    87
 ExpMin= 2.97D-02 ExpMax= 1.17D+04 ExpMxC= 4.01D+02 IAcc=3 IRadAn=         5 AccDes= 0.00D+00
 Harris functional with IExCor=  402 and IRadAn=       5 diagonalized for initial guess.
 HarFok:  IExCor=  402 AccDes= 0.00D+00 IRadAn=         5 IDoV= 1 UseB2=F ITyADJ=14
 ICtDFT=  3500011 ScaDFX=  1.000000  1.000000  1.000000  1.000000
 FoFCou: FMM=F IPFlag=           0 FMFlag=      100000 FMFlg1=           0
         NFxFlg=           0 DoJE=T BraDBF=F KetDBF=T FulRan=T
         wScrn=  0.000000 ICntrl=       500 IOpCl=  0 I1Cent=   200000004 NGrid=           0
         NMat0=    1 NMatS0=      1 NMatT0=    0 NMatD0=    1 NMtDS0=    0 NMtDT0=    0
 Petite list used in FoFCou.
 Keep R1 ints in memory in canonical form, NReq=8247801.
 Requested convergence on RMS density matrix=1.00D-08 within 128 cycles.
 Requested convergence on MAX density matrix=1.00D-06.
 Requested convergence on             energy=1.00D-06.
 No special actions if energy rises.
 SCF Done:  E(RB3LYP) =  -189.776644661     A.U. after   10 cycles
            NFock= 10  Conv=0.27D-08     -V/T= 2.0060

 **********************************************************************

            Population analysis using the SCF Density.

 **********************************************************************

 Orbital symmetries:
       Occupied  (A) (A) (A) (A) (A) (A) (A) (A) (A) (A) (A) (A)
       Virtual   (A) (A) (A) (A) (A) (A) (A) (A) (A) (A) (A) (A)
                 (A) (A) (A) (A) (A) (A) (A) (A) (A) (A) (A) (A)
                 (A) (A) (A) (A) (A) (A) (A) (A) (A) (A) (A) (A)
                 (A) (A) (A) (A) (A) (A) (A) (A) (A) (A) (A) (A)
                 (A) (A) (A) (A) (A) (A) (A) (A) (A) (A) (A) (A)
                 (A) (A) (A) (A) (A) (A) (A) (A) (A) (A) (A) (A)
                 (A) (A) (A)
 The electronic state is 1-A.
 Alpha  occ. eigenvalues --  -19.26470 -19.15779 -10.31714  -1.17783  -1.01944
 Alpha  occ. eigenvalues --   -0.58803  -0.53699  -0.48435  -0.48387  -0.39746
 Alpha  occ. eigenvalues --   -0.39159  -0.32051
 Alpha virt. eigenvalues --   -0.04551  -0.04465  -0.01628   0.02379   0.03442
 Alpha virt. eigenvalues --    0.06402   0.06686   0.10775   0.10917   0.13277
 Alpha virt. eigenvalues --    0.14041   0.15890   0.16877   0.17816   0.19541
 Alpha virt. eigenvalues --    0.23346   0.24509   0.26930   0.27548   0.31030
 Alpha virt. eigenvalues --    0.31219   0.36068   0.36215   0.41201   0.45842
 Alpha virt. eigenvalues --    0.50375   0.51052   0.54123   0.56231   0.59165
 Alpha virt. eigenvalues --    0.61246   0.62293   0.69690   0.72202   0.78541
 Alpha virt. eigenvalues --    0.86848   0.88526   0.92085   0.93027   0.95649
 Alpha virt. eigenvalues --    0.97864   0.97980   1.04310   1.13776   1.17670
 Alpha virt. eigenvalues --    1.20144   1.23645   1.39285   1.41193   1.43980
 Alpha virt. eigenvalues --    1.44547   1.50861   1.69823   1.72649   1.76989
 Alpha virt. eigenvalues --    1.78469   1.85952   1.93365   1.99063   2.13524
 Alpha virt. eigenvalues --    2.17267   2.32875   2.45323   2.66294   2.69268
 Alpha virt. eigenvalues --    3.16805   3.18211   3.27730   3.28472   3.29984
 Alpha virt. eigenvalues --    3.32187   3.33299   3.62367   3.67768   3.89981
          Condensed to atoms (all electrons):
               1          2          3          4          5
     1  C    5.265206   0.594226  -0.006073   0.007513   0.001181
     2  O    0.594226   7.562029  -0.001924   0.000727   0.000136
     3  O   -0.006073  -0.001924   7.575299   0.317504   0.317515
     4  H    0.007513   0.000727   0.317504   0.691239  -0.108327
     5  H    0.001181   0.000136   0.317515  -0.108327   0.661272
 Mulliken charges:
               1
     1  C    0.137947
     2  O   -0.155195
     3  O   -0.202321
     4  H    0.091345
     5  H    0.128223
 Sum of Mulliken charges =   0.00000
 Mulliken charges with hydrogens summed into heavy atoms:
               1
     1  C    0.137947
     2  O   -0.155195
     3  O    0.017248
 Electronic spatial extent (au):  <R**2>=            335.2072
 Charge=              0.0000 electrons
 Dipole moment (field-independent basis, Debye):
    X=              0.4793    Y=              1.6330    Z=              0.0594  Tot=              1.7029
 Quadrupole moment (field-independent basis, Debye-Ang):
   XX=            -13.5177   YY=            -17.6652   ZZ=            -18.1230
   XY=              2.2260   XZ=              0.2003   YZ=              0.0212
 Traceless Quadrupole moment (field-independent basis, Debye-Ang):
   XX=              2.9176   YY=             -1.2299   ZZ=             -1.6877
   XY=              2.2260   XZ=              0.2003   YZ=              0.0212
 Octapole moment (field-independent basis, Debye-Ang**2):
  XXX=             26.9517  YYY=             -2.1188  ZZZ=              0.0361  XYY=              0.9151
  XXY=              6.9685  XXZ=              0.5927  XZZ=             -1.9139  YZZ=             -0.5516
  YYZ=              0.0143  XYZ=              0.0356
 Hexadecapole moment (field-independent basis, Debye-Ang**3):
 XXXX=           -263.3088 YYYY=            -29.0817 ZZZZ=            -17.5592 XXXY=             11.1753
 XXXZ=              1.8861 YYYX=              4.0700 YYYZ=              0.0259 ZZZX=              0.0799
 ZZZY=              0.0194 XXYY=            -61.7202 XXZZ=            -64.4420 YYZZ=             -7.7503
 XXYZ=              0.1007 YYXZ=              0.0224 ZZXY=              1.1185
 N-N= 5.214341602293D+01 E-N=-5.507210697733D+02  KE= 1.886447345386D+02
 Calling FoFJK, ICntrl=      2127 FMM=F ISym2X=0 I1Cent= 0 IOpClX= 0 NMat=1 NMatS=1 NMatT=0.
 ***** Axes restored to original set *****
 -------------------------------------------------------------------
 Center     Atomic                   Forces (Hartrees/Bohr)
 Number     Number              X              Y              Z
 -------------------------------------------------------------------
      1        6           0.000007709   -0.000133271   -0.000010895
      2        8          -0.000018363    0.000254795    0.000012285
      3        8          -0.000821360    0.001053891   -0.000054344
      4        1           0.001541939   -0.000436033    0.000032832
      5        1          -0.000709925   -0.000739381    0.000020122
 -------------------------------------------------------------------
 Cartesian Forces:  Max     0.001541939 RMS     0.000605061

 GradGradGradGradGradGradGradGradGradGradGradGradGradGradGradGradGradGrad
 Berny optimization.
 FormGI is forming the generalized inverse of G from B-inverse, IUseBI=4.
 Internal  Forces:  Max     0.001494245 RMS     0.000635726
 Search for a local minimum.
 Step number   1 out of a maximum of   21
 All quantities printed in internal units (Hartrees-Bohrs-Radians)
 Mixed Optimization -- En-DIIS/RFO-DIIS
 Second derivative matrix not updated -- first step.
 The second derivative matrix:
                          R1        R2        R3        R4        A1
           R1           1.47090
           R2           0.00000   0.00648
           R3           0.00000   0.00000   0.54341
           R4           0.00000   0.00000   0.00000   0.54547
           A1           0.00000   0.00000   0.00000   0.00000   0.25000
           A2           0.00000   0.00000   0.00000   0.00000   0.00000
           A3           0.00000   0.00000   0.00000   0.00000   0.00000
           A4           0.00000   0.00000   0.00000   0.00000   0.00000
           D1           0.00000   0.00000   0.00000   0.00000   0.00000
           D2           0.00000   0.00000   0.00000   0.00000   0.00000
           D3           0.00000   0.00000   0.00000   0.00000   0.00000
                          A2        A3        A4        D1        D2
           A2           0.16000
           A3           0.00000   0.16000
           A4           0.00000   0.00000   0.16000
           D1           0.00000   0.00000   0.00000   0.00230
           D2           0.00000   0.00000   0.00000   0.00000   0.00230
           D3           0.00000   0.00000   0.00000   0.00000   0.00000
                          D3
           D3           0.01487
 ITU=  0
     Eigenvalues ---    0.00230   0.00420   0.00648   0.15897   0.16000
     Eigenvalues ---    0.25000   0.54341   0.54547   1.47090
 RFO step:  Lambda=-2.58983158D-05 EMin= 2.30000000D-03
 Linear search not attempted -- first point.
 Iteration  1 RMS(Cart)=  0.00449882 RMS(Int)=  0.00001913
 Iteration  2 RMS(Cart)=  0.00001636 RMS(Int)=  0.00000030
 Iteration  3 RMS(Cart)=  0.00000000 RMS(Int)=  0.00000030
 Variable       Old X    -DE/DX   Delta X   Delta X   Delta X     New X
                                 (Linear)    (Quad)   (Total)
    R1        2.14138  -0.00009   0.00000  -0.00006  -0.00006   2.14132
    R2        7.52840  -0.00001   0.00000  -0.00211  -0.00211   7.52629
    R3        1.82422   0.00045   0.00000   0.00084   0.00084   1.82506
    R4        1.82237   0.00045   0.00000   0.00083   0.00083   1.82319
    A1        0.64844  -0.00021   0.00000  -0.00085  -0.00085   0.64759
    A2        1.03245  -0.00131   0.00000  -0.00818  -0.00818   1.02427
    A3        2.85544   0.00019   0.00000   0.00116   0.00116   2.85660
    A4        1.82469   0.00149   0.00000   0.00934   0.00934   1.83403
    D1        0.01055  -0.00001   0.00000  -0.00314  -0.00314   0.00741
    D2        0.12720   0.00000   0.00000  -0.00258  -0.00258   0.12462
    D3        3.10765   0.00001   0.00000  -0.00011  -0.00011   3.10754
         Item               Value     Threshold  Converged?
 Maximum Force            0.001494     0.000450     NO 
 RMS     Force            0.000636     0.000300     NO 
 Maximum Displacement     0.011800     0.001800     NO 
 RMS     Displacement     0.004498     0.001200     NO 
 Predicted change in Energy=-1.294915D-05
 GradGradGradGradGradGradGradGradGradGradGradGradGradGradGradGradGradGrad

                          Input orientation:                          
 ---------------------------------------------------------------------
 Center     Atomic      Atomic             Coordinates (Angstroms)
 Number     Number       Type             X           Y           Z
 ---------------------------------------------------------------------
      1          6           0        1.009588    0.442467    0.001282
      2          8           0        1.895802   -0.263666   -0.001485
      3          8           0       -2.085673   -0.163335    0.003832
      4          1           0       -1.563116    0.648847   -0.001070
      5          1           0       -3.004515    0.129131   -0.028034
 ---------------------------------------------------------------------
                    Distance matrix (angstroms):
                    1          2          3          4          5
     1  C    0.000000
     2  O    1.133139   0.000000
     3  O    3.153988   3.982742   0.000000
     4  H    2.580970   3.577260   0.965780   0.000000
     5  H    4.026421   4.916107   0.964792   1.532470   0.000000
 Stoichiometry    CH2O2
 Framework group  C1[X(CH2O2)]
 Deg. of freedom     9
 Full point group                 C1      NOp   1
 Largest Abelian subgroup         C1      NOp   1
 Largest concise Abelian subgroup C1      NOp   1
                         Standard orientation:                         
 ---------------------------------------------------------------------
 Center     Atomic      Atomic             Coordinates (Angstroms)
 Number     Number       Type             X           Y           Z
 ---------------------------------------------------------------------
      1          6           0       -1.010825    0.441708   -0.001819
      2          8           0       -1.896998   -0.264471    0.001853
      3          8           0        2.084471   -0.163919   -0.003935
      4          1           0        1.561867    0.648239    0.000063
      5          1           0        3.003299    0.128637    0.027507
 ---------------------------------------------------------------------
 Rotational constants (GHZ):         117.4340035           3.3594013           3.2660162
 Standard basis: Aug-CC-pVDZ (5D, 7F)
 There are    93 symmetry adapted cartesian basis functions of A   symmetry.
 There are    87 symmetry adapted basis functions of A   symmetry.
    87 basis functions,   151 primitive gaussians,    93 cartesian basis functions
    12 alpha electrons       12 beta electrons
       nuclear repulsion energy        52.1529580344 Hartrees.
 NAtoms=    5 NActive=    5 NUniq=    5 SFac= 1.00D+00 NAtFMM=   60 NAOKFM=F Big=F
 Integral buffers will be    131072 words long.
 Raffenetti 2 integral format.
 Two-electron integral symmetry is turned on.
 One-electron integrals computed using PRISM.
 NBasis=    87 RedAO= T EigKep=  1.89D-03  NBF=    87
 NBsUse=    87 1.00D-06 EigRej= -1.00D+00 NBFU=    87
 Initial guess from the checkpoint file:  "C:\Calculation\20230510.2\(CO)1(H2O)1\4.chk"
 B after Tr=     0.000000    0.000000    0.000000
         Rot=    1.000000   -0.000008    0.000000   -0.000030 Ang=   0.00 deg.
 Keep R1 ints in memory in canonical form, NReq=8247801.
 Requested convergence on RMS density matrix=1.00D-08 within 128 cycles.
 Requested convergence on MAX density matrix=1.00D-06.
 Requested convergence on             energy=1.00D-06.
 No special actions if energy rises.
 SCF Done:  E(RB3LYP) =  -189.776662882     A.U. after    8 cycles
            NFock=  8  Conv=0.33D-08     -V/T= 2.0060
 Calling FoFJK, ICntrl=      2127 FMM=F ISym2X=0 I1Cent= 0 IOpClX= 0 NMat=1 NMatS=1 NMatT=0.
 ***** Axes restored to original set *****
 -------------------------------------------------------------------
 Center     Atomic                   Forces (Hartrees/Bohr)
 Number     Number              X              Y              Z
 -------------------------------------------------------------------
      1        6          -0.000023893   -0.000141713   -0.000001371
      2        8           0.000013952    0.000253137    0.000006484
      3        8          -0.000684940    0.000621761   -0.000036754
      4        1           0.000475596   -0.000561201   -0.000001142
      5        1           0.000219284   -0.000171983    0.000032783
 -------------------------------------------------------------------
 Cartesian Forces:  Max     0.000684940 RMS     0.000322690

 GradGradGradGradGradGradGradGradGradGradGradGradGradGradGradGradGradGrad
 Berny optimization.
 Using GEDIIS/GDIIS optimizer.
 FormGI is forming the generalized inverse of G from B-inverse, IUseBI=4.
 Internal  Forces:  Max     0.000793999 RMS     0.000324320
 Search for a local minimum.
 Step number   2 out of a maximum of   21
 All quantities printed in internal units (Hartrees-Bohrs-Radians)
 Mixed Optimization -- En-DIIS/RFO-DIIS
 Swapping is turned off.
 Update second derivatives using D2CorX and points    1    2
 DE= -1.82D-05 DEPred=-1.29D-05 R= 1.41D+00
 TightC=F SS=  1.41D+00  RLast= 1.34D-02 DXNew= 5.0454D-01 4.0093D-02
 Trust test= 1.41D+00 RLast= 1.34D-02 DXMaxT set to 3.00D-01
 The second derivative matrix:
                          R1        R2        R3        R4        A1
           R1           1.47062
           R2          -0.00005   0.00647
           R3           0.00071   0.00020   0.56468
           R4           0.00064   0.00019   0.02322   0.57077
           A1          -0.00080  -0.00012   0.00620   0.00632   0.24846
           A2          -0.00385  -0.00066   0.00045  -0.00123  -0.01265
           A3           0.00002   0.00007   0.01813   0.01953   0.00333
           A4           0.00387   0.00073   0.01762   0.02069   0.01598
           D1           0.00002   0.00000  -0.00145  -0.00155  -0.00019
           D2          -0.00005   0.00000   0.00116   0.00122   0.00004
           D3          -0.00004   0.00000   0.00137   0.00146   0.00010
                          A2        A3        A4        D1        D2
           A2           0.11125
           A3          -0.00708   0.17431
           A4           0.04175   0.02135   0.13947
           D1           0.00085  -0.00110  -0.00194   0.00238
           D2          -0.00111   0.00081   0.00192  -0.00006   0.00234
           D3          -0.00112   0.00099   0.00211  -0.00007   0.00005
                          D3
           D3           0.01493
 ITU=  1  0
     Eigenvalues ---    0.00230   0.00419   0.00646   0.07536   0.18241
     Eigenvalues ---    0.25104   0.54431   0.59494   1.47064
 En-DIIS/RFO-DIIS/Sim-DIIS IScMMF=       -3 using points:     2    1
 RFO step:  Lambda=-1.42108722D-05.
 DidBck=F Rises=F RFO-DIIS coefs:    1.93242   -0.93242
 Iteration  1 RMS(Cart)=  0.00673630 RMS(Int)=  0.00004990
 Iteration  2 RMS(Cart)=  0.00002781 RMS(Int)=  0.00001396
 Iteration  3 RMS(Cart)=  0.00000000 RMS(Int)=  0.00001396
 Variable       Old X    -DE/DX   Delta X   Delta X   Delta X     New X
                                 (Linear)    (Quad)   (Total)
    R1        2.14132  -0.00007  -0.00006  -0.00004  -0.00010   2.14123
    R2        7.52629  -0.00001  -0.00196  -0.00191  -0.00388   7.52241
    R3        1.82506  -0.00021   0.00078  -0.00122  -0.00044   1.82461
    R4        1.82319  -0.00026   0.00077  -0.00136  -0.00059   1.82260
    A1        0.64759  -0.00027  -0.00079  -0.00125  -0.00205   0.64554
    A2        1.02427  -0.00079  -0.00762  -0.00311  -0.01072   1.01355
    A3        2.85660  -0.00030   0.00108  -0.00389  -0.00282   2.85378
    A4        1.83403   0.00049   0.00871  -0.00120   0.00752   1.84156
    D1        0.00741   0.00003  -0.00293   0.00885   0.00591   0.01332
    D2        0.12462  -0.00003  -0.00241  -0.00602  -0.00841   0.11621
    D3        3.10754  -0.00002  -0.00010   0.00386   0.00380   3.11133
         Item               Value     Threshold  Converged?
 Maximum Force            0.000794     0.000450     NO 
 RMS     Force            0.000324     0.000300     NO 
 Maximum Displacement     0.014127     0.001800     NO 
 RMS     Displacement     0.006732     0.001200     NO 
 Predicted change in Energy=-7.102238D-06
 GradGradGradGradGradGradGradGradGradGradGradGradGradGradGradGradGradGrad

                          Input orientation:                          
 ---------------------------------------------------------------------
 Center     Atomic      Atomic             Coordinates (Angstroms)
 Number     Number       Type             X           Y           Z
 ---------------------------------------------------------------------
      1          6           0        1.005162    0.442455    0.003258
      2          8           0        1.893116   -0.261390   -0.002223
      3          8           0       -2.086356   -0.163031    0.002902
      4          1           0       -1.555640    0.643552   -0.003484
      5          1           0       -3.004195    0.131858   -0.025928
 ---------------------------------------------------------------------
                    Distance matrix (angstroms):
                    1          2          3          4          5
     1  C    0.000000
     2  O    1.133089   0.000000
     3  O    3.150253   3.980690   0.000000
     4  H    2.568694   3.565506   0.965544   0.000000
     5  H    4.021476   4.913131   0.964479   1.536440   0.000000
 Stoichiometry    CH2O2
 Framework group  C1[X(CH2O2)]
 Deg. of freedom     9
 Full point group                 C1      NOp   1
 Largest Abelian subgroup         C1      NOp   1
 Largest concise Abelian subgroup C1      NOp   1
                         Standard orientation:                         
 ---------------------------------------------------------------------
 Center     Atomic      Atomic             Coordinates (Angstroms)
 Number     Number       Type             X           Y           Z
 ---------------------------------------------------------------------
      1          6           0       -1.008468    0.440579   -0.002466
      2          8           0       -1.896118   -0.263655    0.002097
      3          8           0        2.083309   -0.163582   -0.003889
      4          1           0        1.552249    0.642762    0.003946
      5          1           0        3.001030    0.131654    0.025185
 ---------------------------------------------------------------------
 Rotational constants (GHZ):         118.1707605           3.3645377           3.2714359
 Standard basis: Aug-CC-pVDZ (5D, 7F)
 There are    93 symmetry adapted cartesian basis functions of A   symmetry.
 There are    87 symmetry adapted basis functions of A   symmetry.
    87 basis functions,   151 primitive gaussians,    93 cartesian basis functions
    12 alpha electrons       12 beta electrons
       nuclear repulsion energy        52.1807671961 Hartrees.
 NAtoms=    5 NActive=    5 NUniq=    5 SFac= 1.00D+00 NAtFMM=   60 NAOKFM=F Big=F
 Integral buffers will be    131072 words long.
 Raffenetti 2 integral format.
 Two-electron integral symmetry is turned on.
 One-electron integrals computed using PRISM.
 NBasis=    87 RedAO= T EigKep=  1.88D-03  NBF=    87
 NBsUse=    87 1.00D-06 EigRej= -1.00D+00 NBFU=    87
 Initial guess from the checkpoint file:  "C:\Calculation\20230510.2\(CO)1(H2O)1\4.chk"
 B after Tr=     0.000000    0.000000    0.000000
         Rot=    1.000000    0.000036    0.000001   -0.000007 Ang=   0.00 deg.
 Keep R1 ints in memory in canonical form, NReq=8247801.
 Requested convergence on RMS density matrix=1.00D-08 within 128 cycles.
 Requested convergence on MAX density matrix=1.00D-06.
 Requested convergence on             energy=1.00D-06.
 No special actions if energy rises.
 SCF Done:  E(RB3LYP) =  -189.776672591     A.U. after    8 cycles
            NFock=  8  Conv=0.50D-08     -V/T= 2.0060
 Calling FoFJK, ICntrl=      2127 FMM=F ISym2X=0 I1Cent= 0 IOpClX= 0 NMat=1 NMatS=1 NMatT=0.
 ***** Axes restored to original set *****
 -------------------------------------------------------------------
 Center     Atomic                   Forces (Hartrees/Bohr)
 Number     Number              X              Y              Z
 -------------------------------------------------------------------
      1        6          -0.000065888   -0.000129325   -0.000022010
      2        8           0.000072516    0.000231767    0.000018441
      3        8          -0.000302834   -0.000366969   -0.000008584
      4        1          -0.000024474   -0.000174272   -0.000002442
      5        1           0.000320680    0.000438798    0.000014595
 -------------------------------------------------------------------
 Cartesian Forces:  Max     0.000438798 RMS     0.000205569

 GradGradGradGradGradGradGradGradGradGradGradGradGradGradGradGradGradGrad
 Berny optimization.
 Using GEDIIS/GDIIS optimizer.
 FormGI is forming the generalized inverse of G from B-inverse, IUseBI=4.
 Internal  Forces:  Max     0.000665631 RMS     0.000274023
 Search for a local minimum.
 Step number   3 out of a maximum of   21
 All quantities printed in internal units (Hartrees-Bohrs-Radians)
 Mixed Optimization -- En-DIIS/RFO-DIIS
 Swapping is turned off.
 Update second derivatives using D2CorX and points    1    2    3
 DE= -9.71D-06 DEPred=-7.10D-06 R= 1.37D+00
 TightC=F SS=  1.41D+00  RLast= 1.79D-02 DXNew= 5.0454D-01 5.3615D-02
 Trust test= 1.37D+00 RLast= 1.79D-02 DXMaxT set to 3.00D-01
 The second derivative matrix:
                          R1        R2        R3        R4        A1
           R1           1.47047
           R2          -0.00004   0.00649
           R3           0.00010  -0.00004   0.56643
           R4          -0.00004  -0.00004   0.02465   0.57185
           A1          -0.00208  -0.00044   0.00709   0.00657   0.24640
           A2          -0.00596  -0.00065  -0.00657  -0.00920  -0.02829
           A3          -0.00251  -0.00092   0.02529   0.02537   0.00708
           A4           0.00319  -0.00032   0.03181   0.03439   0.03471
           D1          -0.00005  -0.00002  -0.00139  -0.00153  -0.00029
           D2          -0.00008  -0.00003   0.00143   0.00148   0.00035
           D3           0.00020   0.00002   0.00180   0.00201   0.00137
                          A2        A3        A4        D1        D2
           A2           0.08185
           A3          -0.03580   0.20405
           A4           0.03912   0.07988   0.20384
           D1          -0.00003  -0.00085  -0.00086   0.00238
           D2          -0.00141   0.00195   0.00341  -0.00004   0.00237
           D3           0.00217   0.00275   0.00087   0.00000   0.00005
                          D3
           D3           0.01460
 ITU=  1  1  0
     Eigenvalues ---    0.00227   0.00408   0.00647   0.04001   0.23368
     Eigenvalues ---    0.29057   0.54436   0.60560   1.47051
 En-DIIS/RFO-DIIS/Sim-DIIS IScMMF=       -3 using points:     3    2    1
 RFO step:  Lambda=-9.42986279D-06.
 DidBck=F Rises=F RFO-DIIS coefs:    1.29114    0.45852   -0.74966
 Iteration  1 RMS(Cart)=  0.00464582 RMS(Int)=  0.00003312
 Iteration  2 RMS(Cart)=  0.00001499 RMS(Int)=  0.00001042
 Iteration  3 RMS(Cart)=  0.00000000 RMS(Int)=  0.00001042
 Variable       Old X    -DE/DX   Delta X   Delta X   Delta X     New X
                                 (Linear)    (Quad)   (Total)
    R1        2.14123  -0.00003  -0.00007   0.00001  -0.00006   2.14116
    R2        7.52241   0.00000  -0.00271   0.00091  -0.00180   7.52062
    R3        1.82461  -0.00016   0.00050  -0.00066  -0.00016   1.82445
    R4        1.82260  -0.00017   0.00045  -0.00069  -0.00024   1.82236
    A1        0.64554  -0.00030  -0.00123  -0.00046  -0.00169   0.64385
    A2        1.01355  -0.00040  -0.00925   0.00156  -0.00769   1.00586
    A3        2.85378  -0.00067   0.00005  -0.00315  -0.00311   2.85067
    A4        1.84156  -0.00026   0.00920  -0.00484   0.00436   1.84592
    D1        0.01332   0.00001  -0.00063   0.00091   0.00027   0.01359
    D2        0.11621  -0.00004  -0.00438  -0.00431  -0.00869   0.10752
    D3        3.11133  -0.00005   0.00102   0.00125   0.00230   3.11363
         Item               Value     Threshold  Converged?
 Maximum Force            0.000666     0.000450     NO 
 RMS     Force            0.000274     0.000300     YES
 Maximum Displacement     0.009591     0.001800     NO 
 RMS     Displacement     0.004646     0.001200     NO 
 Predicted change in Energy=-3.079129D-06
 GradGradGradGradGradGradGradGradGradGradGradGradGradGradGradGradGradGrad

                          Input orientation:                          
 ---------------------------------------------------------------------
 Center     Atomic      Atomic             Coordinates (Angstroms)
 Number     Number       Type             X           Y           Z
 ---------------------------------------------------------------------
      1          6           0        1.002081    0.442325    0.003458
      2          8           0        1.891543   -0.259559   -0.002056
      3          8           0       -2.087026   -0.163164    0.002042
      4          1           0       -1.550565    0.639506   -0.004080
      5          1           0       -3.003946    0.134337   -0.024838
 ---------------------------------------------------------------------
                    Distance matrix (angstroms):
                    1          2          3          4          5
     1  C    0.000000
     2  O    1.133054   0.000000
     3  O    3.147889   3.979738   0.000000
     4  H    2.560262   3.557587   0.965457   0.000000
     5  H    4.017949   4.911363   0.964351   1.538813   0.000000
 Stoichiometry    CH2O2
 Framework group  C1[X(CH2O2)]
 Deg. of freedom     9
 Full point group                 C1      NOp   1
 Largest Abelian subgroup         C1      NOp   1
 Largest concise Abelian subgroup C1      NOp   1
                         Standard orientation:                         
 ---------------------------------------------------------------------
 Center     Atomic      Atomic             Coordinates (Angstroms)
 Number     Number       Type             X           Y           Z
 ---------------------------------------------------------------------
      1          6           0       -1.006837    0.439632   -0.002447
      2          8           0       -1.895750   -0.262953    0.002027
      3          8           0        2.082740   -0.163456   -0.003661
      4          1           0        1.545658    0.638782    0.004347
      5          1           0        2.999441    0.134703    0.023417
 ---------------------------------------------------------------------
 Rotational constants (GHZ):         118.7524289           3.3674166           3.2745974
 Standard basis: Aug-CC-pVDZ (5D, 7F)
 There are    93 symmetry adapted cartesian basis functions of A   symmetry.
 There are    87 symmetry adapted basis functions of A   symmetry.
    87 basis functions,   151 primitive gaussians,    93 cartesian basis functions
    12 alpha electrons       12 beta electrons
       nuclear repulsion energy        52.1976992650 Hartrees.
 NAtoms=    5 NActive=    5 NUniq=    5 SFac= 1.00D+00 NAtFMM=   60 NAOKFM=F Big=F
 Integral buffers will be    131072 words long.
 Raffenetti 2 integral format.
 Two-electron integral symmetry is turned on.
 One-electron integrals computed using PRISM.
 NBasis=    87 RedAO= T EigKep=  1.87D-03  NBF=    87
 NBsUse=    87 1.00D-06 EigRej= -1.00D+00 NBFU=    87
 Initial guess from the checkpoint file:  "C:\Calculation\20230510.2\(CO)1(H2O)1\4.chk"
 B after Tr=     0.000000    0.000000    0.000000
         Rot=    1.000000    0.000034    0.000001   -0.000002 Ang=   0.00 deg.
 Keep R1 ints in memory in canonical form, NReq=8247801.
 Requested convergence on RMS density matrix=1.00D-08 within 128 cycles.
 Requested convergence on MAX density matrix=1.00D-06.
 Requested convergence on             energy=1.00D-06.
 No special actions if energy rises.
 SCF Done:  E(RB3LYP) =  -189.776675922     A.U. after    8 cycles
            NFock=  8  Conv=0.35D-08     -V/T= 2.0060
 Calling FoFJK, ICntrl=      2127 FMM=F ISym2X=0 I1Cent= 0 IOpClX= 0 NMat=1 NMatS=1 NMatT=0.
 ***** Axes restored to original set *****
 -------------------------------------------------------------------
 Center     Atomic                   Forces (Hartrees/Bohr)
 Number     Number              X              Y              Z
 -------------------------------------------------------------------
      1        6          -0.000091157   -0.000121751   -0.000024479
      2        8           0.000110390    0.000218447    0.000019528
      3        8          -0.000115130   -0.000891615    0.000006786
      4        1          -0.000336169    0.000019394   -0.000009477
      5        1           0.000432065    0.000775526    0.000007642
 -------------------------------------------------------------------
 Cartesian Forces:  Max     0.000891615 RMS     0.000345828

 GradGradGradGradGradGradGradGradGradGradGradGradGradGradGradGradGradGrad
 Berny optimization.
 Using GEDIIS/GDIIS optimizer.
 FormGI is forming the generalized inverse of G from B-inverse, IUseBI=4.
 Internal  Forces:  Max     0.000874804 RMS     0.000364074
 Search for a local minimum.
 Step number   4 out of a maximum of   21
 All quantities printed in internal units (Hartrees-Bohrs-Radians)
 Mixed Optimization -- En-DIIS/RFO-DIIS
 Swapping is turned off.
 Update second derivatives using D2CorX and points    1    2    3    4
 DE= -3.33D-06 DEPred=-3.08D-06 R= 1.08D+00
 TightC=F SS=  1.41D+00  RLast= 1.32D-02 DXNew= 5.0454D-01 3.9663D-02
 Trust test= 1.08D+00 RLast= 1.32D-02 DXMaxT set to 3.00D-01
 The second derivative matrix:
                          R1        R2        R3        R4        A1
           R1           1.47054
           R2           0.00005   0.00655
           R3          -0.00012  -0.00003   0.56258
           R4          -0.00022   0.00002   0.02062   0.56765
           A1          -0.00285  -0.00070   0.00381   0.00273   0.24428
           A2          -0.00586  -0.00001  -0.00868  -0.01137  -0.03576
           A3          -0.00491  -0.00210   0.01672   0.01513   0.00544
           A4           0.00071  -0.00213   0.02450   0.02543   0.04014
           D1          -0.00003  -0.00002  -0.00158  -0.00173  -0.00029
           D2          -0.00015  -0.00006   0.00125   0.00125   0.00032
           D3           0.00020  -0.00001   0.00229   0.00252   0.00187
                          A2        A3        A4        D1        D2
           A2           0.07744
           A3          -0.05557   0.21173
           A4           0.02419   0.10587   0.24276
           D1           0.00024  -0.00101  -0.00128   0.00239
           D2          -0.00198   0.00221   0.00419  -0.00005   0.00238
           D3           0.00227   0.00421   0.00225  -0.00002   0.00009
                          D3
           D3           0.01458
 ITU=  1  1  1  0
     Eigenvalues ---    0.00223   0.00393   0.00652   0.02900   0.23855
     Eigenvalues ---    0.34136   0.54438   0.59354   1.47058
 En-DIIS/RFO-DIIS/Sim-DIIS IScMMF=       -3 using points:     4    3    2    1
 RFO step:  Lambda=-8.88841148D-06.
 DidBck=F Rises=F RFO-DIIS coefs:    2.13782   -1.27798    0.51501   -0.37485
 Iteration  1 RMS(Cart)=  0.00534993 RMS(Int)=  0.00007303
 Iteration  2 RMS(Cart)=  0.00002690 RMS(Int)=  0.00002218
 Iteration  3 RMS(Cart)=  0.00000001 RMS(Int)=  0.00002218
 Variable       Old X    -DE/DX   Delta X   Delta X   Delta X     New X
                                 (Linear)    (Quad)   (Total)
    R1        2.14116   0.00000  -0.00008   0.00002  -0.00007   2.14110
    R2        7.52062   0.00002  -0.00229   0.00195  -0.00035   7.52027
    R3        1.82445  -0.00017   0.00019  -0.00044  -0.00025   1.82420
    R4        1.82236  -0.00017   0.00012  -0.00044  -0.00033   1.82203
    A1        0.64385  -0.00033  -0.00196  -0.00035  -0.00230   0.64155
    A2        1.00586  -0.00017  -0.01031   0.00191  -0.00840   0.99747
    A3        2.85067  -0.00087  -0.00271  -0.00284  -0.00556   2.84511
    A4        1.84592  -0.00070   0.00741  -0.00483   0.00259   1.84851
    D1        0.01359   0.00002  -0.00170   0.00082  -0.00090   0.01269
    D2        0.10752  -0.00005  -0.00967  -0.00315  -0.01280   0.09472
    D3        3.11363  -0.00006   0.00204   0.00095   0.00307   3.11670
         Item               Value     Threshold  Converged?
 Maximum Force            0.000875     0.000450     NO 
 RMS     Force            0.000364     0.000300     NO 
 Maximum Displacement     0.009469     0.001800     NO 
 RMS     Displacement     0.005352     0.001200     NO 
 Predicted change in Energy=-3.805347D-06
 GradGradGradGradGradGradGradGradGradGradGradGradGradGradGradGradGradGrad

                          Input orientation:                          
 ---------------------------------------------------------------------
 Center     Atomic      Atomic             Coordinates (Angstroms)
 Number     Number       Type             X           Y           Z
 ---------------------------------------------------------------------
      1          6           0        0.998769    0.441943    0.003345
      2          8           0        1.890387   -0.257148   -0.001600
      3          8           0       -2.088077   -0.163976    0.000799
      4          1           0       -1.545612    0.634495   -0.004550
      5          1           0       -3.003381    0.138130   -0.023467
 ---------------------------------------------------------------------
                    Distance matrix (angstroms):
                    1          2          3          4          5
     1  C    0.000000
     2  O    1.133020   0.000000
     3  O    3.145753   3.979555   0.000000
     4  H    2.551669   3.549806   0.965325   0.000000
     5  H    4.013755   4.909755   0.964178   1.540074   0.000000
 Stoichiometry    CH2O2
 Framework group  C1[X(CH2O2)]
 Deg. of freedom     9
 Full point group                 C1      NOp   1
 Largest Abelian subgroup         C1      NOp   1
 Largest concise Abelian subgroup C1      NOp   1
                         Standard orientation:                         
 ---------------------------------------------------------------------
 Center     Atomic      Atomic             Coordinates (Angstroms)
 Number     Number       Type             X           Y           Z
 ---------------------------------------------------------------------
      1          6           0       -1.005096    0.438321   -0.002272
      2          8           0       -1.895788   -0.261954    0.001854
      3          8           0        2.082547   -0.163530   -0.003286
      4          1           0        1.539035    0.634212    0.004152
      5          1           0        2.997470    0.139732    0.020942
 ---------------------------------------------------------------------
 Rotational constants (GHZ):         119.4976917           3.3692931           3.2769288
 Standard basis: Aug-CC-pVDZ (5D, 7F)
 There are    93 symmetry adapted cartesian basis functions of A   symmetry.
 There are    87 symmetry adapted basis functions of A   symmetry.
    87 basis functions,   151 primitive gaussians,    93 cartesian basis functions
    12 alpha electrons       12 beta electrons
       nuclear repulsion energy        52.2132549943 Hartrees.
 NAtoms=    5 NActive=    5 NUniq=    5 SFac= 1.00D+00 NAtFMM=   60 NAOKFM=F Big=F
 Integral buffers will be    131072 words long.
 Raffenetti 2 integral format.
 Two-electron integral symmetry is turned on.
 One-electron integrals computed using PRISM.
 NBasis=    87 RedAO= T EigKep=  1.86D-03  NBF=    87
 NBsUse=    87 1.00D-06 EigRej= -1.00D+00 NBFU=    87
 Initial guess from the checkpoint file:  "C:\Calculation\20230510.2\(CO)1(H2O)1\4.chk"
 B after Tr=     0.000000    0.000000    0.000000
         Rot=    1.000000    0.000055    0.000001    0.000005 Ang=   0.01 deg.
 Keep R1 ints in memory in canonical form, NReq=8247801.
 Requested convergence on RMS density matrix=1.00D-08 within 128 cycles.
 Requested convergence on MAX density matrix=1.00D-06.
 Requested convergence on             energy=1.00D-06.
 No special actions if energy rises.
 SCF Done:  E(RB3LYP) =  -189.776681068     A.U. after    8 cycles
            NFock=  8  Conv=0.42D-08     -V/T= 2.0060
 Calling FoFJK, ICntrl=      2127 FMM=F ISym2X=0 I1Cent= 0 IOpClX= 0 NMat=1 NMatS=1 NMatT=0.
 ***** Axes restored to original set *****
 -------------------------------------------------------------------
 Center     Atomic                   Forces (Hartrees/Bohr)
 Number     Number              X              Y              Z
 -------------------------------------------------------------------
      1        6          -0.000113193   -0.000111593   -0.000023849
      2        8           0.000148151    0.000203681    0.000018618
      3        8           0.000022033   -0.001294602    0.000016525
      4        1          -0.000465923    0.000208057   -0.000012879
      5        1           0.000408932    0.000994457    0.000001585
 -------------------------------------------------------------------
 Cartesian Forces:  Max     0.001294602 RMS     0.000460657

 GradGradGradGradGradGradGradGradGradGradGradGradGradGradGradGradGradGrad
 Berny optimization.
 Using GEDIIS/GDIIS optimizer.
 FormGI is forming the generalized inverse of G from B-inverse, IUseBI=4.
 Internal  Forces:  Max     0.000991658 RMS     0.000429499
 Search for a local minimum.
 Step number   5 out of a maximum of   21
 All quantities printed in internal units (Hartrees-Bohrs-Radians)
 Mixed Optimization -- En-DIIS/RFO-DIIS
 Swapping is turned off.
 Update second derivatives using D2CorX and points    1    2    3    4    5
 DE= -5.15D-06 DEPred=-3.81D-06 R= 1.35D+00
 TightC=F SS=  1.41D+00  RLast= 1.70D-02 DXNew= 5.0454D-01 5.0895D-02
 Trust test= 1.35D+00 RLast= 1.70D-02 DXMaxT set to 3.00D-01
 The second derivative matrix:
                          R1        R2        R3        R4        A1
           R1           1.47118
           R2           0.00053   0.00687
           R3           0.00151   0.00146   0.56457
           R4           0.00180   0.00180   0.02360   0.57188
           A1          -0.00422  -0.00108  -0.00417  -0.00613   0.23754
           A2          -0.00260   0.00278  -0.00260  -0.00332  -0.04796
           A3          -0.01099  -0.00496  -0.01105  -0.01650  -0.00742
           A4          -0.00864  -0.00778  -0.00955  -0.01447   0.03935
           D1          -0.00005  -0.00003  -0.00166  -0.00183  -0.00022
           D2          -0.00023  -0.00007   0.00071   0.00067  -0.00029
           D3           0.00022   0.00000   0.00252   0.00277   0.00200
                          A2        A3        A4        D1        D2
           A2           0.09041
           A3          -0.10003   0.20002
           A4          -0.03331   0.13829   0.33243
           D1           0.00015  -0.00074  -0.00092   0.00240
           D2          -0.00278   0.00086   0.00364  -0.00004   0.00232
           D3           0.00244   0.00449   0.00238  -0.00002   0.00010
                          D3
           D3           0.01457
 ITU=  1  1  1  1  0
     Eigenvalues ---    0.00171   0.00339   0.00661   0.01416   0.24114
     Eigenvalues ---    0.44253   0.54443   0.59630   1.47139
 En-DIIS/RFO-DIIS/Sim-DIIS IScMMF=       -3 using points:     5    4    3    2    1
 RFO step:  Lambda=-3.48828009D-05.
 DIIS inversion failure, remove point   5.
 DIIS inversion failure, remove point   4.
 RFO-DIIS uses    3 points instead of    5
 DidBck=F Rises=F RFO-DIIS coefs:    1.91157    1.08843   -2.00000    0.00000    0.00000
 Iteration  1 RMS(Cart)=  0.02275635 RMS(Int)=  0.00130945
 Iteration  2 RMS(Cart)=  0.00049898 RMS(Int)=  0.00045108
 Iteration  3 RMS(Cart)=  0.00000219 RMS(Int)=  0.00045107
 Iteration  4 RMS(Cart)=  0.00000000 RMS(Int)=  0.00045107
 Variable       Old X    -DE/DX   Delta X   Delta X   Delta X     New X
                                 (Linear)    (Quad)   (Total)
    R1        2.14110   0.00002  -0.00019  -0.00008  -0.00027   2.14082
    R2        7.52027   0.00003  -0.00391   0.00410   0.00019   7.52046
    R3        1.82420  -0.00009  -0.00056  -0.00043  -0.00099   1.82321
    R4        1.82203  -0.00008  -0.00078  -0.00052  -0.00130   1.82073
    A1        0.64155  -0.00034  -0.00549  -0.00451  -0.00999   0.63155
    A2        0.99747  -0.00004  -0.02302  -0.01261  -0.03552   0.96194
    A3        2.84511  -0.00099  -0.01129  -0.01328  -0.02472   2.82039
    A4        1.84851  -0.00095   0.01108  -0.00112   0.01008   1.85859
    D1        0.01269   0.00002  -0.00028  -0.00314  -0.00386   0.00883
    D2        0.09472  -0.00005  -0.02904  -0.02577  -0.05437   0.04035
    D3        3.11670  -0.00006   0.00740   0.00578   0.01452   3.13122
         Item               Value     Threshold  Converged?
 Maximum Force            0.000992     0.000450     NO 
 RMS     Force            0.000429     0.000300     NO 
 Maximum Displacement     0.040987     0.001800     NO 
 RMS     Displacement     0.022773     0.001200     NO 
 Predicted change in Energy=-1.208705D-05
 GradGradGradGradGradGradGradGradGradGradGradGradGradGradGradGradGradGrad

                          Input orientation:                          
 ---------------------------------------------------------------------
 Center     Atomic      Atomic             Coordinates (Angstroms)
 Number     Number       Type             X           Y           Z
 ---------------------------------------------------------------------
      1          6           0        0.985149    0.440180    0.002938
      2          8           0        1.886008   -0.246735    0.000488
      3          8           0       -2.092854   -0.167474   -0.005081
      4          1           0       -1.525400    0.612806   -0.006884
      5          1           0       -3.000817    0.154668   -0.016935
 ---------------------------------------------------------------------
                    Distance matrix (angstroms):
                    1          2          3          4          5
     1  C    0.000000
     2  O    1.132875   0.000000
     3  O    3.137420   3.979655   0.000000
     4  H    2.516496   3.518035   0.964802   0.000000
     5  H    3.996228   4.903314   0.963490   1.544942   0.000000
 Stoichiometry    CH2O2
 Framework group  C1[X(CH2O2)]
 Deg. of freedom     9
 Full point group                 C1      NOp   1
 Largest Abelian subgroup         C1      NOp   1
 Largest concise Abelian subgroup C1      NOp   1
                         Standard orientation:                         
 ---------------------------------------------------------------------
 Center     Atomic      Atomic             Coordinates (Angstroms)
 Number     Number       Type             X           Y           Z
 ---------------------------------------------------------------------
      1          6           0       -0.997991    0.432603   -0.001413
      2          8           0       -1.896338   -0.257596    0.001020
      3          8           0        2.082212   -0.163846   -0.001569
      4          1           0        1.511928    0.614352    0.003603
      5          1           0        2.989020    0.161569    0.009270
 ---------------------------------------------------------------------
 Rotational constants (GHZ):         122.7968572           3.3757601           3.2854483
 Standard basis: Aug-CC-pVDZ (5D, 7F)
 There are    93 symmetry adapted cartesian basis functions of A   symmetry.
 There are    87 symmetry adapted basis functions of A   symmetry.
    87 basis functions,   151 primitive gaussians,    93 cartesian basis functions
    12 alpha electrons       12 beta electrons
       nuclear repulsion energy        52.2745369983 Hartrees.
 NAtoms=    5 NActive=    5 NUniq=    5 SFac= 1.00D+00 NAtFMM=   60 NAOKFM=F Big=F
 Integral buffers will be    131072 words long.
 Raffenetti 2 integral format.
 Two-electron integral symmetry is turned on.
 One-electron integrals computed using PRISM.
 NBasis=    87 RedAO= T EigKep=  1.83D-03  NBF=    87
 NBsUse=    87 1.00D-06 EigRej= -1.00D+00 NBFU=    87
 Initial guess from the checkpoint file:  "C:\Calculation\20230510.2\(CO)1(H2O)1\4.chk"
 B after Tr=     0.000000    0.000000    0.000000
         Rot=    1.000000    0.000162    0.000004    0.000023 Ang=   0.02 deg.
 ExpMin= 2.97D-02 ExpMax= 1.17D+04 ExpMxC= 4.01D+02 IAcc=3 IRadAn=         5 AccDes= 0.00D+00
 Harris functional with IExCor=  402 and IRadAn=       5 diagonalized for initial guess.
 HarFok:  IExCor=  402 AccDes= 0.00D+00 IRadAn=         5 IDoV= 1 UseB2=F ITyADJ=14
 ICtDFT=  3500011 ScaDFX=  1.000000  1.000000  1.000000  1.000000
 FoFCou: FMM=F IPFlag=           0 FMFlag=      100000 FMFlg1=           0
         NFxFlg=           0 DoJE=T BraDBF=F KetDBF=T FulRan=T
         wScrn=  0.000000 ICntrl=       500 IOpCl=  0 I1Cent=   200000004 NGrid=           0
         NMat0=    1 NMatS0=      1 NMatT0=    0 NMatD0=    1 NMtDS0=    0 NMtDT0=    0
 Petite list used in FoFCou.
 Keep R1 ints in memory in canonical form, NReq=8247801.
 Requested convergence on RMS density matrix=1.00D-08 within 128 cycles.
 Requested convergence on MAX density matrix=1.00D-06.
 Requested convergence on             energy=1.00D-06.
 No special actions if energy rises.
 SCF Done:  E(RB3LYP) =  -189.776693186     A.U. after    9 cycles
            NFock=  9  Conv=0.33D-08     -V/T= 2.0060
 Calling FoFJK, ICntrl=      2127 FMM=F ISym2X=0 I1Cent= 0 IOpClX= 0 NMat=1 NMatS=1 NMatT=0.
 ***** Axes restored to original set *****
 -------------------------------------------------------------------
 Center     Atomic                   Forces (Hartrees/Bohr)
 Number     Number              X              Y              Z
 -------------------------------------------------------------------
      1        6          -0.000198317   -0.000076569   -0.000022008
      2        8           0.000303720    0.000148096    0.000015210
      3        8           0.000501286   -0.002901874    0.000023979
      4        1          -0.000931528    0.000981930   -0.000007093
      5        1           0.000324839    0.001848418   -0.000010088
 -------------------------------------------------------------------
 Cartesian Forces:  Max     0.002901874 RMS     0.000972525

 GradGradGradGradGradGradGradGradGradGradGradGradGradGradGradGradGradGrad
 Berny optimization.
 Using GEDIIS/GDIIS optimizer.
 FormGI is forming the generalized inverse of G from B-inverse, IUseBI=4.
 Internal  Forces:  Max     0.001931382 RMS     0.000761103
 Search for a local minimum.
 Step number   6 out of a maximum of   21
 All quantities printed in internal units (Hartrees-Bohrs-Radians)
 Mixed Optimization -- En-DIIS/RFO-DIIS
 Swapping is turned off.
 Update second derivatives using D2CorX and points    1    2    3    4    5
                                                      6
 DE= -1.21D-05 DEPred=-1.21D-05 R= 1.00D+00
 TightC=F SS=  1.41D+00  RLast= 7.25D-02 DXNew= 5.0454D-01 2.1756D-01
 Trust test= 1.00D+00 RLast= 7.25D-02 DXMaxT set to 3.00D-01
 The second derivative matrix:
                          R1        R2        R3        R4        A1
           R1           1.47108
           R2           0.00051   0.00690
           R3           0.00236   0.00231   0.56999
           R4           0.00261   0.00267   0.02967   0.57860
           A1          -0.00355  -0.00060  -0.00552  -0.00718   0.23408
           A2          -0.00322   0.00267   0.00058  -0.00042  -0.04446
           A3          -0.00848  -0.00334  -0.01669  -0.02096  -0.02016
           A4          -0.00522  -0.00584  -0.01777  -0.02108   0.02284
           D1          -0.00016  -0.00011  -0.00202  -0.00225  -0.00007
           D2          -0.00005   0.00007   0.00102   0.00108  -0.00074
           D3           0.00042   0.00015   0.00315   0.00352   0.00176
                          A2        A3        A4        D1        D2
           A2           0.08796
           A3          -0.08735   0.15293
           A4          -0.01632   0.07662   0.24995
           D1          -0.00044   0.00006   0.00046   0.00242
           D2          -0.00181  -0.00107   0.00075  -0.00005   0.00230
           D3           0.00358   0.00310  -0.00014  -0.00004   0.00011
                          D3
           D3           0.01459
 ITU=  1  1  1  1  1  0
     Eigenvalues ---    0.00157   0.00348   0.00664   0.01288   0.24019
     Eigenvalues ---    0.30903   0.54432   0.60922   1.47119
 En-DIIS/RFO-DIIS/Sim-DIIS IScMMF=       -3 using points:     6    5    4    3    2    1
 RFO step:  Lambda=-3.05463539D-05.
 DIIS inversion failure, remove point   6.
 DIIS inversion failure, remove point   5.
 DIIS inversion failure, remove point   4.
 DIIS inversion failure, remove point   3.
 RFO-DIIS uses    2 points instead of    6
 DidBck=F Rises=F RFO-DIIS coefs:    1.88964   -0.88964    0.00000    0.00000    0.00000
                  RFO-DIIS coefs:    0.00000
 Iteration  1 RMS(Cart)=  0.01906926 RMS(Int)=  0.00124518
 Iteration  2 RMS(Cart)=  0.00045516 RMS(Int)=  0.00063357
 Iteration  3 RMS(Cart)=  0.00000238 RMS(Int)=  0.00063356
 Iteration  4 RMS(Cart)=  0.00000000 RMS(Int)=  0.00063356
 Variable       Old X    -DE/DX   Delta X   Delta X   Delta X     New X
                                 (Linear)    (Quad)   (Total)
    R1        2.14082   0.00011  -0.00024   0.00007  -0.00017   2.14065
    R2        7.52046   0.00010   0.00017   0.01234   0.01251   7.53297
    R3        1.82321   0.00025  -0.00088   0.00043  -0.00045   1.82276
    R4        1.82073   0.00031  -0.00116   0.00053  -0.00063   1.82010
    A1        0.63155  -0.00039  -0.00889  -0.00074  -0.00963   0.62192
    A2        0.96194   0.00050  -0.03160   0.00345  -0.02798   0.93396
    A3        2.82039  -0.00144  -0.02199  -0.00539  -0.02754   2.79285
    A4        1.85859  -0.00193   0.00897  -0.00882   0.00032   1.85890
    D1        0.00883   0.00000  -0.00344  -0.00319  -0.00729   0.00154
    D2        0.04035  -0.00002  -0.04837  -0.00128  -0.04899  -0.00864
    D3        3.13122  -0.00003   0.01292  -0.00077   0.01400  -3.13796
         Item               Value     Threshold  Converged?
 Maximum Force            0.001931     0.000450     NO 
 RMS     Force            0.000761     0.000300     NO 
 Maximum Displacement     0.036069     0.001800     NO 
 RMS     Displacement     0.019075     0.001200     NO 
 Predicted change in Energy=-1.530981D-05
 GradGradGradGradGradGradGradGradGradGradGradGradGradGradGradGradGradGrad

                          Input orientation:                          
 ---------------------------------------------------------------------
 Center     Atomic      Atomic             Coordinates (Angstroms)
 Number     Number       Type             X           Y           Z
 ---------------------------------------------------------------------
      1          6           0        0.976701    0.437757    0.001555
      2          8           0        1.886550   -0.237053    0.003149
      3          8           0       -2.099174   -0.172364   -0.011168
      4          1           0       -1.513090    0.593719   -0.008290
      5          1           0       -2.998901    0.171386   -0.010720
 ---------------------------------------------------------------------
                    Distance matrix (angstroms):
                    1          2          3          4          5
     1  C    0.000000
     2  O    1.132783   0.000000
     3  O    3.135827   3.986274   0.000000
     4  H    2.494690   3.499694   0.964565   0.000000
     5  H    3.984534   4.902514   0.963158   1.544670   0.000000
 Stoichiometry    CH2O2
 Framework group  C1[X(CH2O2)]
 Deg. of freedom     9
 Full point group                 C1      NOp   1
 Largest Abelian subgroup         C1      NOp   1
 Largest concise Abelian subgroup C1      NOp   1
                         Standard orientation:                         
 ---------------------------------------------------------------------
 Center     Atomic      Atomic             Coordinates (Angstroms)
 Number     Number       Type             X           Y           Z
 ---------------------------------------------------------------------
      1          6           0       -0.993993    0.426949   -0.000050
      2          8           0       -1.899771   -0.253317   -0.000067
      3          8           0        2.085517   -0.164687    0.000256
      4          1           0        1.494835    0.597862    0.001337
      5          1           0        2.983156    0.184470   -0.002544
 ---------------------------------------------------------------------
 Rotational constants (GHZ):         125.9183536           3.3701100           3.2822631
 Standard basis: Aug-CC-pVDZ (5D, 7F)
 There are    93 symmetry adapted cartesian basis functions of A   symmetry.
 There are    87 symmetry adapted basis functions of A   symmetry.
    87 basis functions,   151 primitive gaussians,    93 cartesian basis functions
    12 alpha electrons       12 beta electrons
       nuclear repulsion energy        52.2888142282 Hartrees.
 NAtoms=    5 NActive=    5 NUniq=    5 SFac= 1.00D+00 NAtFMM=   60 NAOKFM=F Big=F
 Integral buffers will be    131072 words long.
 Raffenetti 2 integral format.
 Two-electron integral symmetry is turned on.
 One-electron integrals computed using PRISM.
 NBasis=    87 RedAO= T EigKep=  1.80D-03  NBF=    87
 NBsUse=    87 1.00D-06 EigRej= -1.00D+00 NBFU=    87
 Initial guess from the checkpoint file:  "C:\Calculation\20230510.2\(CO)1(H2O)1\4.chk"
 B after Tr=     0.000000    0.000000    0.000000
         Rot=    1.000000    0.000036    0.000001    0.000019 Ang=   0.00 deg.
 ExpMin= 2.97D-02 ExpMax= 1.17D+04 ExpMxC= 4.01D+02 IAcc=3 IRadAn=         5 AccDes= 0.00D+00
 Harris functional with IExCor=  402 and IRadAn=       5 diagonalized for initial guess.
 HarFok:  IExCor=  402 AccDes= 0.00D+00 IRadAn=         5 IDoV= 1 UseB2=F ITyADJ=14
 ICtDFT=  3500011 ScaDFX=  1.000000  1.000000  1.000000  1.000000
 FoFCou: FMM=F IPFlag=           0 FMFlag=      100000 FMFlg1=           0
         NFxFlg=           0 DoJE=T BraDBF=F KetDBF=T FulRan=T
         wScrn=  0.000000 ICntrl=       500 IOpCl=  0 I1Cent=   200000004 NGrid=           0
         NMat0=    1 NMatS0=      1 NMatT0=    0 NMatD0=    1 NMtDS0=    0 NMtDT0=    0
 Petite list used in FoFCou.
 Keep R1 ints in memory in canonical form, NReq=8247801.
 Requested convergence on RMS density matrix=1.00D-08 within 128 cycles.
 Requested convergence on MAX density matrix=1.00D-06.
 Requested convergence on             energy=1.00D-06.
 No special actions if energy rises.
 SCF Done:  E(RB3LYP) =  -189.776722735     A.U. after    9 cycles
            NFock=  9  Conv=0.30D-08     -V/T= 2.0060
 Calling FoFJK, ICntrl=      2127 FMM=F ISym2X=0 I1Cent= 0 IOpClX= 0 NMat=1 NMatS=1 NMatT=0.
 ***** Axes restored to original set *****
 -------------------------------------------------------------------
 Center     Atomic                   Forces (Hartrees/Bohr)
 Number     Number              X              Y              Z
 -------------------------------------------------------------------
      1        6          -0.000245356   -0.000059693   -0.000008372
      2        8           0.000396473    0.000118869    0.000005272
      3        8           0.000529140   -0.003258450   -0.000012578
      4        1          -0.000755808    0.001251655    0.000012984
      5        1           0.000075551    0.001947620    0.000002695
 -------------------------------------------------------------------
 Cartesian Forces:  Max     0.003258450 RMS     0.001066765

 GradGradGradGradGradGradGradGradGradGradGradGradGradGradGradGradGradGrad
 Berny optimization.
 Using GEDIIS/GDIIS optimizer.
 FormGI is forming the generalized inverse of G from B-inverse, IUseBI=4.
 Internal  Forces:  Max     0.001946909 RMS     0.000796045
 Search for a local minimum.
 Step number   7 out of a maximum of   21
 All quantities printed in internal units (Hartrees-Bohrs-Radians)
 Mixed Optimization -- En-DIIS/RFO-DIIS
 Swapping is turned off.
 Update second derivatives using D2CorX and points    1    2    3    4    5
                                                      6    7
 DE= -2.95D-05 DEPred=-1.53D-05 R= 1.93D+00
 TightC=F SS=  1.41D+00  RLast= 6.66D-02 DXNew= 5.0454D-01 1.9991D-01
 Trust test= 1.93D+00 RLast= 6.66D-02 DXMaxT set to 3.00D-01
 The second derivative matrix:
                          R1        R2        R3        R4        A1
           R1           1.47252
           R2           0.00179   0.00803
           R3           0.01120   0.01025   0.62090
           R4           0.01213   0.01121   0.08497   0.63861
           A1          -0.00340  -0.00040  -0.00868  -0.01012   0.23013
           A2          -0.00204   0.00364   0.01206   0.01144  -0.04021
           A3          -0.00484   0.00014  -0.01244  -0.01440  -0.03693
           A4          -0.00316  -0.00372  -0.02591  -0.02755   0.00339
           D1          -0.00064  -0.00055  -0.00475  -0.00523   0.00021
           D2           0.00105   0.00106   0.00671   0.00733  -0.00168
           D3           0.00155   0.00117   0.00936   0.01030   0.00100
                          A2        A3        A4        D1        D2
           A2           0.08396
           A3          -0.06585   0.08733
           A4           0.00728  -0.00462   0.15223
           D1          -0.00112   0.00023   0.00129   0.00256
           D2           0.00016  -0.00285  -0.00286  -0.00033   0.00285
           D3           0.00530   0.00219  -0.00266  -0.00034   0.00072
                          D3
           D3           0.01525
 ITU=  1  1  1  1  1  1  0
     Eigenvalues ---    0.00037   0.00313   0.00697   0.01067   0.14059
     Eigenvalues ---    0.24315   0.54433   0.71916   1.47293
 En-DIIS/RFO-DIIS/Sim-DIIS IScMMF=       -3 using points:     7    6    5    4    3    2    1
 RFO step:  Lambda=-3.26133803D-04.
 DIIS inversion failure, remove point   7.
 DIIS inversion failure, remove point   6.
 DIIS inversion failure, remove point   5.
 DIIS inversion failure, remove point   4.
 RFO-DIIS uses    2 points instead of    7
 DidBck=F Rises=F RFO-DIIS coefs:    3.00000    0.00000   -2.00000    0.00000    0.00000
                  RFO-DIIS coefs:    0.00000    0.00000
 Maximum step size (   0.300) exceeded in Quadratic search.
    -- Step size scaled by   0.606
 Iteration  1 RMS(Cart)=  0.12781717 RMS(Int)=  0.05227638
 Iteration  2 RMS(Cart)=  0.02725501 RMS(Int)=  0.01314925
 Iteration  3 RMS(Cart)=  0.00252644 RMS(Int)=  0.01299023
 Iteration  4 RMS(Cart)=  0.00004215 RMS(Int)=  0.01299014
 Iteration  5 RMS(Cart)=  0.00000189 RMS(Int)=  0.01299014
 Iteration  6 RMS(Cart)=  0.00000003 RMS(Int)=  0.01299014
 Variable       Old X    -DE/DX   Delta X   Delta X   Delta X     New X
                                 (Linear)    (Quad)   (Total)
    R1        2.14065   0.00016  -0.00054  -0.00057  -0.00111   2.13954
    R2        7.53297   0.00015   0.01538   0.08696   0.10235   7.63531
    R3        1.82276   0.00053  -0.00174  -0.00018  -0.00192   1.82084
    R4        1.82010   0.00062  -0.00234  -0.00072  -0.00306   1.81705
    A1        0.62192  -0.00042  -0.02377  -0.04352  -0.06730   0.55463
    A2        0.93396   0.00053  -0.07693  -0.11536  -0.18580   0.74816
    A3        2.79285  -0.00141  -0.06331  -0.12898  -0.19155   2.60130
    A4        1.85890  -0.00195   0.01260  -0.01316   0.00468   1.86359
    D1        0.00154  -0.00002  -0.01351  -0.02538  -0.05709  -0.05555
    D2       -0.00864   0.00001  -0.12522  -0.17979  -0.28681  -0.29545
    D3       -3.13796   0.00000   0.03455   0.05630   0.12437  -3.01359
         Item               Value     Threshold  Converged?
 Maximum Force            0.001947     0.000450     NO 
 RMS     Force            0.000796     0.000300     NO 
 Maximum Displacement     0.245074     0.001800     NO 
 RMS     Displacement     0.128076     0.001200     NO 
 Predicted change in Energy=-1.586560D-04
 GradGradGradGradGradGradGradGradGradGradGradGradGradGradGradGradGradGrad

                          Input orientation:                          
 ---------------------------------------------------------------------
 Center     Atomic      Atomic             Coordinates (Angstroms)
 Number     Number       Type             X           Y           Z
 ---------------------------------------------------------------------
      1          6           0        0.927422    0.418798   -0.012387
      2          8           0        1.892743   -0.171273    0.030438
      3          8           0       -2.146598   -0.195563   -0.060339
      4          1           0       -1.444801    0.464031   -0.031383
      5          1           0       -2.976680    0.277452    0.048196
 ---------------------------------------------------------------------
                    Distance matrix (angstroms):
                    1          2          3          4          5
     1  C    0.000000
     2  O    1.132194   0.000000
     3  O    3.135177   4.040433   0.000000
     4  H    2.372729   3.398033   0.963547   0.000000
     5  H    3.907129   4.890086   0.961540   1.545250   0.000000
 Stoichiometry    CH2O2
 Framework group  C1[X(CH2O2)]
 Deg. of freedom     9
 Full point group                 C1      NOp   1
 Largest Abelian subgroup         C1      NOp   1
 Largest concise Abelian subgroup C1      NOp   1
                         Standard orientation:                         
 ---------------------------------------------------------------------
 Center     Atomic      Atomic             Coordinates (Angstroms)
 Number     Number       Type             X           Y           Z
 ---------------------------------------------------------------------
      1          6           0       -0.972277    0.385943    0.015253
      2          8           0       -1.926053   -0.223536   -0.011391
      3          8           0        2.113894   -0.166217    0.014022
      4          1           0        1.398545    0.479049   -0.004190
      5          1           0        2.932393    0.323311   -0.108376
 ---------------------------------------------------------------------
 Rotational constants (GHZ):         150.7946913           3.3155302           3.2449637
 Standard basis: Aug-CC-pVDZ (5D, 7F)
 There are    93 symmetry adapted cartesian basis functions of A   symmetry.
 There are    87 symmetry adapted basis functions of A   symmetry.
    87 basis functions,   151 primitive gaussians,    93 cartesian basis functions
    12 alpha electrons       12 beta electrons
       nuclear repulsion energy        52.3197733196 Hartrees.
 NAtoms=    5 NActive=    5 NUniq=    5 SFac= 1.00D+00 NAtFMM=   60 NAOKFM=F Big=F
 Integral buffers will be    131072 words long.
 Raffenetti 2 integral format.
 Two-electron integral symmetry is turned on.
 One-electron integrals computed using PRISM.
 NBasis=    87 RedAO= T EigKep=  1.59D-03  NBF=    87
 NBsUse=    87 1.00D-06 EigRej= -1.00D+00 NBFU=    87
 Initial guess from the checkpoint file:  "C:\Calculation\20230510.2\(CO)1(H2O)1\4.chk"
 B after Tr=     0.000000    0.000000    0.000000
         Rot=    0.999985   -0.005408   -0.000084    0.000010 Ang=  -0.62 deg.
 ExpMin= 2.97D-02 ExpMax= 1.17D+04 ExpMxC= 4.01D+02 IAcc=3 IRadAn=         5 AccDes= 0.00D+00
 Harris functional with IExCor=  402 and IRadAn=       5 diagonalized for initial guess.
 HarFok:  IExCor=  402 AccDes= 0.00D+00 IRadAn=         5 IDoV= 1 UseB2=F ITyADJ=14
 ICtDFT=  3500011 ScaDFX=  1.000000  1.000000  1.000000  1.000000
 FoFCou: FMM=F IPFlag=           0 FMFlag=      100000 FMFlg1=           0
         NFxFlg=           0 DoJE=T BraDBF=F KetDBF=T FulRan=T
         wScrn=  0.000000 ICntrl=       500 IOpCl=  0 I1Cent=   200000004 NGrid=           0
         NMat0=    1 NMatS0=      1 NMatT0=    0 NMatD0=    1 NMtDS0=    0 NMtDT0=    0
 Petite list used in FoFCou.
 Keep R1 ints in memory in canonical form, NReq=8247801.
 Requested convergence on RMS density matrix=1.00D-08 within 128 cycles.
 Requested convergence on MAX density matrix=1.00D-06.
 Requested convergence on             energy=1.00D-06.
 No special actions if energy rises.
 SCF Done:  E(RB3LYP) =  -189.776871327     A.U. after   10 cycles
            NFock= 10  Conv=0.30D-08     -V/T= 2.0059
 Calling FoFJK, ICntrl=      2127 FMM=F ISym2X=0 I1Cent= 0 IOpClX= 0 NMat=1 NMatS=1 NMatT=0.
 ***** Axes restored to original set *****
 -------------------------------------------------------------------
 Center     Atomic                   Forces (Hartrees/Bohr)
 Number     Number              X              Y              Z
 -------------------------------------------------------------------
      1        6          -0.000563221   -0.000038705    0.000098911
      2        8           0.001022992   -0.000009258   -0.000063483
      3        8           0.000210204   -0.005459305   -0.000610070
      4        1           0.000034559    0.002674515    0.000274090
      5        1          -0.000704534    0.002832753    0.000300551
 -------------------------------------------------------------------
 Cartesian Forces:  Max     0.005459305 RMS     0.001778390

 GradGradGradGradGradGradGradGradGradGradGradGradGradGradGradGradGradGrad
 Berny optimization.
 Using GEDIIS/GDIIS optimizer.
 FormGI is forming the generalized inverse of G from B-inverse, IUseBI=4.
 Internal  Forces:  Max     0.002437934 RMS     0.001262896
 Search for a local minimum.
 Step number   8 out of a maximum of   21
 All quantities printed in internal units (Hartrees-Bohrs-Radians)
 Mixed Optimization -- RFO/linear search
 Update second derivatives using D2CorX and points    3    4    5    6    7
                                                      8
 DE= -1.49D-04 DEPred=-1.59D-04 R= 9.37D-01
 TightC=F SS=  1.41D+00  RLast= 4.33D-01 DXNew= 5.0454D-01 1.2981D+00
 Trust test= 9.37D-01 RLast= 4.33D-01 DXMaxT set to 5.05D-01
 The second derivative matrix:
                          R1        R2        R3        R4        A1
           R1           1.47305
           R2           0.00247   0.00884
           R3           0.01338   0.01318   0.63003
           R4           0.01435   0.01426   0.09420   0.64787
           A1          -0.00530  -0.00231  -0.01722  -0.01931   0.23206
           A2           0.00157   0.00741   0.02782   0.02827  -0.04516
           A3          -0.00635  -0.00146  -0.01879  -0.02113  -0.03541
           A4          -0.00216  -0.00353  -0.02006  -0.02059   0.00867
           D1          -0.00070  -0.00065  -0.00497  -0.00543   0.00062
           D2           0.00160   0.00167   0.00914   0.00989  -0.00284
           D3           0.00247   0.00207   0.01351   0.01477   0.00039
                          A2        A3        A4        D1        D2
           A2           0.09597
           A3          -0.06986   0.08723
           A4          -0.00098  -0.00136   0.13802
           D1          -0.00184   0.00055   0.00078   0.00255
           D2           0.00258  -0.00388  -0.00337  -0.00043   0.00328
           D3           0.00708   0.00202  -0.00548  -0.00056   0.00126
                          D3
           D3           0.01532
 ITU=  1  1  1  1  1  1  1  0
 Use linear search instead of GDIIS.
     Eigenvalues ---    0.00057   0.00350   0.00752   0.01193   0.14087
     Eigenvalues ---    0.24555   0.54434   0.73973   1.47364
 RFO step:  Lambda=-1.20034125D-04 EMin= 5.67852019D-04
 Quartic linear search produced a step of  0.41406.
 Iteration  1 RMS(Cart)=  0.08836409 RMS(Int)=  0.01158078
 Iteration  2 RMS(Cart)=  0.00699733 RMS(Int)=  0.00583379
 Iteration  3 RMS(Cart)=  0.00010455 RMS(Int)=  0.00583318
[...]
 Iteration  1 RMS(Cart)=  0.02857436 RMS(Int)=  0.01063095
 Iteration  2 RMS(Cart)=  0.00239351 RMS(Int)=  0.00048864
 Iteration  3 RMS(Cart)=  0.00002980 RMS(Int)=  0.00048803
 Iteration  4 RMS(Cart)=  0.00000000 RMS(Int)=  0.00048803
 Variable       Old X    -DE/DX   Delta X   Delta X   Delta X     New X
                                 (Linear)    (Quad)   (Total)
    R1        2.13994  -0.00008   0.00006  -0.00006   0.00000   2.13994
    R2        8.40447  -0.00003  -0.04985   0.01255  -0.03730   8.36717
    R3        1.82818  -0.00042  -0.00002   0.00018   0.00017   1.82834
    R4        1.82349  -0.00061   0.00030  -0.00017   0.00013   1.82362
    A1        0.12408  -0.00006   0.01093   0.00310   0.01404   0.13812
    A2        0.17364  -0.00005   0.02696   0.00665   0.03352   0.20716
    A3        1.98605   0.00017   0.02829   0.01286   0.04139   2.02744
    A4        1.82936   0.00021   0.00071   0.00054   0.00107   1.83043
    D1        0.00938  -0.00003  -0.05035  -0.13943  -0.19066  -0.18128
    D2       -0.45049   0.00002  -0.00604  -0.05341  -0.05856  -0.50905
    D3       -2.70806  -0.00005  -0.04794  -0.08295  -0.12992  -2.83798
         Item               Value     Threshold  Converged?
 Maximum Force            0.000608     0.000450     NO 
 RMS     Force            0.000240     0.000300     YES
 Maximum Displacement     0.050255     0.001800     NO 
 RMS     Displacement     0.029233     0.001200     NO 
 Predicted change in Energy=-2.149100D-06
 GradGradGradGradGradGradGradGradGradGradGradGradGradGradGradGradGradGrad

                          Input orientation:                          
 ---------------------------------------------------------------------
 Center     Atomic      Atomic             Coordinates (Angstroms)
 Number     Number       Type             X           Y           Z
 ---------------------------------------------------------------------
      1          6           0        0.908592    0.206395    0.006150
      2          8           0        2.036178    0.125225    0.071793
      3          8           0       -2.372894   -0.168008   -0.208833
      4          1           0       -1.445649    0.088456   -0.106203
      5          1           0       -2.874141    0.541377    0.211618
 ---------------------------------------------------------------------
                    Distance matrix (angstroms):
                    1          2          3          4          5
     1  C    0.000000
     2  O    1.132408   0.000000
     3  O    3.309765   4.427714   0.000000
     4  H    2.359869   3.486568   0.967517   0.000000
     5  H    3.803091   4.929906   0.965016   1.531907   0.000000
 Stoichiometry    CH2O2
 Framework group  C1[X(CH2O2)]
 Deg. of freedom     9
 Full point group                 C1      NOp   1
 Largest Abelian subgroup         C1      NOp   1
 Largest concise Abelian subgroup C1      NOp   1
                         Standard orientation:                         
 ---------------------------------------------------------------------
 Center     Atomic      Atomic             Coordinates (Angstroms)
 Number     Number       Type             X           Y           Z
 ---------------------------------------------------------------------
      1          6           0       -0.980802    0.080378    0.045926
      2          8           0       -2.104596   -0.038123   -0.027515
      3          8           0        2.322223   -0.124373   -0.005491
      4          1           0        1.379058    0.085883    0.042696
      5          1           0        2.764742    0.731816   -0.054208
 ---------------------------------------------------------------------
 Rotational constants (GHZ):         563.7251552           2.8397283           2.8267898
 Standard basis: Aug-CC-pVDZ (5D, 7F)
 There are    93 symmetry adapted cartesian basis functions of A   symmetry.
 There are    87 symmetry adapted basis functions of A   symmetry.
    87 basis functions,   151 primitive gaussians,    93 cartesian basis functions
    12 alpha electrons       12 beta electrons
       nuclear repulsion energy        51.1149800237 Hartrees.
 NAtoms=    5 NActive=    5 NUniq=    5 SFac= 1.00D+00 NAtFMM=   60 NAOKFM=F Big=F
 Integral buffers will be    131072 words long.
 Raffenetti 2 integral format.
 Two-electron integral symmetry is turned on.
 One-electron integrals computed using PRISM.
 NBasis=    87 RedAO= T EigKep=  1.36D-03  NBF=    87
 NBsUse=    87 1.00D-06 EigRej= -1.00D+00 NBFU=    87
 Initial guess from the checkpoint file:  "C:\Calculation\20230510.2\(CO)1(H2O)1\4.chk"
 B after Tr=     0.000000    0.000000    0.000000
         Rot=    0.999970    0.007755    0.000010    0.000310 Ang=   0.89 deg.
 ExpMin= 2.97D-02 ExpMax= 1.17D+04 ExpMxC= 4.01D+02 IAcc=3 IRadAn=         5 AccDes= 0.00D+00
 Harris functional with IExCor=  402 and IRadAn=       5 diagonalized for initial guess.
 HarFok:  IExCor=  402 AccDes= 0.00D+00 IRadAn=         5 IDoV= 1 UseB2=F ITyADJ=14
 ICtDFT=  3500011 ScaDFX=  1.000000  1.000000  1.000000  1.000000
 FoFCou: FMM=F IPFlag=           0 FMFlag=      100000 FMFlg1=           0
         NFxFlg=           0 DoJE=T BraDBF=F KetDBF=T FulRan=T
         wScrn=  0.000000 ICntrl=       500 IOpCl=  0 I1Cent=   200000004 NGrid=           0
         NMat0=    1 NMatS0=      1 NMatT0=    0 NMatD0=    1 NMtDS0=    0 NMtDT0=    0
 Petite list used in FoFCou.
 Keep R1 ints in memory in canonical form, NReq=8247801.
 Requested convergence on RMS density matrix=1.00D-08 within 128 cycles.
 Requested convergence on MAX density matrix=1.00D-06.
 Requested convergence on             energy=1.00D-06.
 No special actions if energy rises.
 SCF Done:  E(RB3LYP) =  -189.777438364     A.U. after    9 cycles
            NFock=  9  Conv=0.35D-08     -V/T= 2.0060
 Calling FoFJK, ICntrl=      2127 FMM=F ISym2X=0 I1Cent= 0 IOpClX= 0 NMat=1 NMatS=1 NMatT=0.
 ***** Axes restored to original set *****
 -------------------------------------------------------------------
 Center     Atomic                   Forces (Hartrees/Bohr)
 Number     Number              X              Y              Z
 -------------------------------------------------------------------
      1        6           0.000133572   -0.000017398    0.000181041
      2        8          -0.000118485    0.000020617   -0.000148104
      3        8           0.000231308    0.000884248    0.000455675
      4        1          -0.000440131   -0.000306910   -0.000107843
      5        1           0.000193736   -0.000580556   -0.000380769
 -------------------------------------------------------------------
 Cartesian Forces:  Max     0.000884248 RMS     0.000360505

 GradGradGradGradGradGradGradGradGradGradGradGradGradGradGradGradGradGrad
 Berny optimization.
 Using GEDIIS/GDIIS optimizer.
 FormGI is forming the generalized inverse of G from B-inverse, IUseBI=4.
 Internal  Forces:  Max     0.000693252 RMS     0.000278322
 Search for a local minimum.
 Step number  21 out of a maximum of   21
 All quantities printed in internal units (Hartrees-Bohrs-Radians)
 Mixed Optimization -- En-DIIS/RFO-DIIS
 Swapping is turned off.
 Update second derivatives using D2CorX and points   10   11   12   13   14
                                                     15   16   17   18   19
                                                     20   21
 DE= -8.93D-06 DEPred=-2.15D-06 R= 4.16D+00
 TightC=F SS=  1.41D+00  RLast= 2.47D-01 DXNew= 2.4000D+00 7.4148D-01
 Trust test= 4.16D+00 RLast= 2.47D-01 DXMaxT set to 1.43D+00
 The second derivative matrix:
                          R1        R2        R3        R4        A1
           R1           1.47142
           R2          -0.00835   0.00305
           R3          -0.00237  -0.00536   0.60149
           R4           0.00222  -0.00679   0.07348   0.64401
           A1          -0.00347   0.00088  -0.01371  -0.01786   0.02584
           A2          -0.00863   0.00003   0.00806   0.00816  -0.01950
           A3           0.00262   0.00194  -0.00786  -0.01066  -0.00064
           A4           0.00193   0.00116   0.00272  -0.00476   0.00806
           D1           0.00243   0.00007  -0.00162  -0.00223   0.00193
           D2          -0.00296  -0.00016  -0.00058  -0.00138   0.00330
           D3          -0.00205   0.00022   0.00240   0.00266  -0.00651
                          A2        A3        A4        D1        D2
           A2           0.06903
           A3          -0.05389   0.06619
           A4          -0.00158   0.00071   0.11501
           D1          -0.00308   0.00146   0.00146   0.00234
           D2          -0.00180  -0.00224   0.00081  -0.00052   0.00204
           D3           0.00332   0.00505  -0.00102  -0.00301  -0.00077
                          D3
           D3           0.00668
 ITU=  1  1  1  1  1  1  1  1  1  1  1  1
     Eigenvalues ---    0.00027   0.00154   0.00235   0.00482   0.03545
     Eigenvalues ---    0.12070   0.54628   0.70039   1.47153
 En-DIIS/RFO-DIIS/Sim-DIIS IScMMF=       -3 using points:    21   20   19   18   17   16   15   14   13   12
 RFO step:  Lambda=-3.07020749D-06.
 DIIS inversion failure, remove point  10.
 DIIS inversion failure, remove point   9.
 DIIS inversion failure, remove point   8.
 DIIS inversion failure, remove point   7.
 DIIS inversion failure, remove point   6.
 RFO-DIIS uses    5 points instead of   10
 DidBck=T Rises=F RFO-DIIS coefs:    0.34528   -0.94693    3.00000   -1.10138   -0.29697
                  RFO-DIIS coefs:    0.00000    0.00000    0.00000    0.00000    0.00000
 Iteration  1 RMS(Cart)=  0.00883887 RMS(Int)=  0.00077244
 Iteration  2 RMS(Cart)=  0.00060502 RMS(Int)=  0.00052619
 Iteration  3 RMS(Cart)=  0.00000059 RMS(Int)=  0.00052619
 Variable       Old X    -DE/DX   Delta X   Delta X   Delta X     New X
                                 (Linear)    (Quad)   (Total)
    R1        2.13994  -0.00014  -0.00023   0.00021  -0.00002   2.13992
    R2        8.36717   0.00002   0.00770   0.01130   0.01900   8.38616
    R3        1.82834  -0.00051  -0.00119   0.00027  -0.00092   1.82742
    R4        1.82362  -0.00069  -0.00146   0.00023  -0.00123   1.82239
    A1        0.13812   0.00000  -0.01490   0.00345  -0.01145   0.12667
    A2        0.20716  -0.00012  -0.02612   0.01907  -0.00734   0.19982
    A3        2.02744   0.00012  -0.03396   0.02834  -0.00548   2.02196
    A4        1.83043   0.00023   0.00147   0.00173   0.00299   1.83342
    D1       -0.18128   0.00001   0.25567  -0.18617   0.07046  -0.11082
    D2       -0.50905   0.00004   0.09822  -0.05032   0.04694  -0.46211
    D3       -2.83798  -0.00002   0.15324  -0.12939   0.02283  -2.81515
         Item               Value     Threshold  Converged?
 Maximum Force            0.000693     0.000450     NO 
 RMS     Force            0.000278     0.000300     YES
 Maximum Displacement     0.014336     0.001800     NO 
 RMS     Displacement     0.009370     0.001200     NO 
 Predicted change in Energy=-3.672302D-07
 Optimization stopped.
    -- Number of steps exceeded,  NStep=  21
    -- Flag reset to prevent archiving.
                           ----------------------------
                           ! Non-Optimized Parameters !
                           ! (Angstroms and Degrees)  !
 --------------------------                            --------------------------
 ! Name  Definition              Value          Derivative Info.                !
 --------------------------------------------------------------------------------
 ! R1    R(1,2)                  1.1324         -DE/DX =   -0.0001              !
 ! R2    R(2,3)                  4.4378         -DE/DX =    0.0                 !
 ! R3    R(3,4)                  0.967          -DE/DX =   -0.0005              !
 ! R4    R(3,5)                  0.9644         -DE/DX =   -0.0007              !
 ! A1    A(1,2,3)                7.2577         -DE/DX =    0.0                 !
 ! A2    A(2,3,4)               11.449          -DE/DX =   -0.0001              !
 ! A3    A(2,3,5)              115.8497         -DE/DX =    0.0001              !
 ! A4    A(4,3,5)              105.047          -DE/DX =    0.0002              !
 ! D1    D(1,2,3,4)             -6.3493         -DE/DX =    0.0                 !
 ! D2    D(1,2,3,5)            -26.4769         -DE/DX =    0.0                 !
 ! D3    D(2,3,4,5)           -161.2962         -DE/DX =    0.0                 !
 --------------------------------------------------------------------------------
 GradGradGradGradGradGradGradGradGradGradGradGradGradGradGradGradGradGrad

                          Input orientation:                          
 ---------------------------------------------------------------------
 Center     Atomic      Atomic             Coordinates (Angstroms)
 Number     Number       Type             X           Y           Z
 ---------------------------------------------------------------------
      1          6           0        0.908592    0.206395    0.006150
      2          8           0        2.036178    0.125225    0.071793
      3          8           0       -2.372894   -0.168008   -0.208833
      4          1           0       -1.445649    0.088456   -0.106203
      5          1           0       -2.874141    0.541377    0.211618
 ---------------------------------------------------------------------
                    Distance matrix (angstroms):
                    1          2          3          4          5
     1  C    0.000000
     2  O    1.132408   0.000000
     3  O    3.309765   4.427714   0.000000
     4  H    2.359869   3.486568   0.967517   0.000000
     5  H    3.803091   4.929906   0.965016   1.531907   0.000000
 Stoichiometry    CH2O2
 Framework group  C1[X(CH2O2)]
 Deg. of freedom     9
 Full point group                 C1      NOp   1
 Largest Abelian subgroup         C1      NOp   1
 Largest concise Abelian subgroup C1      NOp   1
                         Standard orientation:                         
 ---------------------------------------------------------------------
 Center     Atomic      Atomic             Coordinates (Angstroms)
 Number     Number       Type             X           Y           Z
 ---------------------------------------------------------------------
      1          6           0       -0.980802    0.080378    0.045926
      2          8           0       -2.104596   -0.038123   -0.027515
      3          8           0        2.322223   -0.124373   -0.005491
      4          1           0        1.379058    0.085883    0.042696
      5          1           0        2.764742    0.731816   -0.054208
 ---------------------------------------------------------------------
 Rotational constants (GHZ):         563.7251552           2.8397283           2.8267898

 **********************************************************************

            Population analysis using the SCF Density.

 **********************************************************************

 Orbital symmetries:
       Occupied  (A) (A) (A) (A) (A) (A) (A) (A) (A) (A) (A) (A)
       Virtual   (A) (A) (A) (A) (A) (A) (A) (A) (A) (A) (A) (A)
                 (A) (A) (A) (A) (A) (A) (A) (A) (A) (A) (A) (A)
                 (A) (A) (A) (A) (A) (A) (A) (A) (A) (A) (A) (A)
                 (A) (A) (A) (A) (A) (A) (A) (A) (A) (A) (A) (A)
                 (A) (A) (A) (A) (A) (A) (A) (A) (A) (A) (A) (A)
                 (A) (A) (A) (A) (A) (A) (A) (A) (A) (A) (A) (A)
                 (A) (A) (A)
 The electronic state is 1-A.
 Alpha  occ. eigenvalues --  -19.27858 -19.14987 -10.33125  -1.19165  -1.01104
 Alpha  occ. eigenvalues --   -0.60085  -0.53033  -0.49760  -0.49756  -0.41138
 Alpha  occ. eigenvalues --   -0.38496  -0.31321
 Alpha virt. eigenvalues --   -0.05861  -0.05819  -0.01142   0.01509   0.04988
 Alpha virt. eigenvalues --    0.05707   0.05874   0.10392   0.12069   0.12998
 Alpha virt. eigenvalues --    0.14581   0.15265   0.17753   0.18614   0.20594
 Alpha virt. eigenvalues --    0.21859   0.24732   0.28499   0.29093   0.29300
 Alpha virt. eigenvalues --    0.30457   0.31087   0.32376   0.42811   0.48045
 Alpha virt. eigenvalues --    0.51147   0.53380   0.55016   0.55407   0.57079
 Alpha virt. eigenvalues --    0.60647   0.66563   0.70688   0.75635   0.84040
 Alpha virt. eigenvalues --    0.84957   0.86434   0.91755   0.96204   0.96385
 Alpha virt. eigenvalues --    0.97014   1.00128   1.07284   1.18119   1.22293
 Alpha virt. eigenvalues --    1.24530   1.26478   1.38980   1.39173   1.45097
 Alpha virt. eigenvalues --    1.47377   1.50398   1.68600   1.68708   1.76443
 Alpha virt. eigenvalues --    1.76729   1.87414   1.91192   2.06941   2.16017
 Alpha virt. eigenvalues --    2.19502   2.43361   2.46342   2.67268   2.75007
 Alpha virt. eigenvalues --    3.14875   3.15015   3.27258   3.27553   3.30250
 Alpha virt. eigenvalues --    3.33879   3.35840   3.63428   3.70975   3.90461
          Condensed to atoms (all electrons):
               1          2          3          4          5
     1  C    5.295129   0.586931  -0.008987  -0.020083   0.000452
     2  O    0.586931   7.581860  -0.000925   0.002727   0.000111
     3  O   -0.008987  -0.000925   7.576921   0.281277   0.339682
     4  H   -0.020083   0.002727   0.281277   0.721650  -0.128369
     5  H    0.000452   0.000111   0.339682  -0.128369   0.718808
 Mulliken charges:
               1
     1  C    0.146557
     2  O   -0.170704
     3  O   -0.187968
     4  H    0.142799
     5  H    0.069316
 Sum of Mulliken charges =   0.00000
 Mulliken charges with hydrogens summed into heavy atoms:
               1
     1  C    0.146557
     2  O   -0.170704
     3  O    0.024147
 Electronic spatial extent (au):  <R**2>=            379.1112
 Charge=              0.0000 electrons
 Dipole moment (field-independent basis, Debye):
    X=             -1.2366    Y=              1.6409    Z=             -0.0024  Tot=              2.0547
 Quadrupole moment (field-independent basis, Debye-Ang):
   XX=            -20.7219   YY=            -16.5435   ZZ=            -18.1029
   XY=              4.4279   XZ=             -0.3004   YZ=             -0.1135
 Traceless Quadrupole moment (field-independent basis, Debye-Ang):
   XX=             -2.2658   YY=              1.9126   ZZ=              0.3532
   XY=              4.4279   XZ=             -0.3004   YZ=             -0.1135
 Octapole moment (field-independent basis, Debye-Ang**2):
  XXX=              3.5263  YYY=              0.8465  ZZZ=             -0.2219  XYY=              1.5075
  XXY=             13.0789  XXZ=             -0.6208  XZZ=             -2.5998  YZZ=              0.0782
  YYZ=             -0.1324  XYZ=             -0.2637
 Hexadecapole moment (field-independent basis, Debye-Ang**3):
 XXXX=           -402.4826 YYYY=            -17.8531 ZZZZ=            -17.6621 XXXY=             36.5342
 XXXZ=             -2.9847 YYYX=              4.1949 YYYZ=             -0.1395 ZZZX=              0.1059
 ZZZY=             -0.0862 XXYY=            -63.5294 XXZZ=            -74.2278 YYZZ=             -6.0447
 XXYZ=             -0.7497 YYXZ=             -0.1298 ZZXY=              0.7715
 N-N= 5.111498002375D+01 E-N=-5.485446533265D+02  KE= 1.886412282360D+02


 My opinions may have changed, but not the fact that I am right.
                       -- Ashleigh Brilliant
 Error termination request processed by link 9999.
 Error termination via Lnk1e in C:\G16W\l9999.exe at Tue May 23 19:27:01 2023.
 Job cpu time:       0 days  0 hours  6 minutes 30.0 seconds.
 Elapsed time:       0 days  0 hours  5 minutes 56.0 seconds.
 File lengths (MBytes):  RWF=     10 Int=      0 D2E=      0 Chk=      2 Scr=      1
