 Entering Link 1 = C:\G16W\l1.exe PID=     13108.
  
 Copyright (c) 1988-2019, Gaussian, Inc.  All Rights Reserved.
  
 This is part of the Gaussian(R) 16 program.  It is based on
 the Gaussian(R) 09 system (copyright 2009, Gaussian, Inc.),
 the Gaussian(R) 03 system (copyright 2003, Gaussian, Inc.),
 the Gaussian(R) 98 system (copyright 1998, Gaussian, Inc.),
 the Gaussian(R) 94 system (copyright 1995, Gaussian, Inc.),
 the Gaussian 92(TM) system (copyright 1992, Gaussian, Inc.),
 the Gaussian 90(TM) system (copyright 1990, Gaussian, Inc.),
 the Gaussian 88(TM) system (copyright 1988, Gaussian, Inc.),
 the Gaussian 86(TM) system (copyright 1986, Carnegie Mellon
 University), and the Gaussian 82(TM) system (copyright 1983,
 Carnegie Mellon University). Gaussian is a federally registered
 trademark of Gaussian, Inc.
  
 This software contains proprietary and confidential information,
 including trade secrets, belonging to Gaussian, Inc.
  
 This software is provided under written license and may be
 used, copied, transmitted, or stored only in accord with that
 written license.
  
 The following legend is applicable only to US Government
 contracts under FAR:
  
                    RESTRICTED RIGHTS LEGEND
  
 Use, reproduction and disclosure by the US Government is
 subject to restrictions as set forth in subparagraphs (a)
 and (c) of the Commercial Computer Software - Restricted
 Rights clause in FAR 52.227-19.
  
 Gaussian, Inc.
 340 Quinnipiac St., Bldg. 40, Wallingford CT 06492
  
  
 ---------------------------------------------------------------
 Warning -- This program may not be used in any manner that
 competes with the business of Gaussian, Inc. or will provide
 assistance to any competitor of Gaussian, Inc.  The licensee
 of this program is prohibited from giving any competitor of
 Gaussian, Inc. access to this program.  By using this program,
 the user acknowledges that Gaussian, Inc. is engaged in the
 business of creating and licensing software in the field of
 computational chemistry and represents and warrants to the
 licensee that it is not a competitor of Gaussian, Inc. and that
 it will not use this program in any manner prohibited above.
 ---------------------------------------------------------------
  

 Cite this work as:
 Gaussian 16, Revision C.01,
 M. J. Frisch, G. W. Trucks, H. B. Schlegel, G. E. Scuseria, 
 M. A. Robb, J. R. Cheeseman, G. Scalmani, V. Barone, 
 G. A. Petersson, H. Nakatsuji, X. Li, M. Caricato, A. V. Marenich, 
 J. Bloino, B. G. Janesko, R. Gomperts, B. Mennucci, H. P. Hratchian, 
 J. V. Ortiz, A. F. Izmaylov, J. L. Sonnenberg, D. Williams-Young, 
 F. Ding, F. Lipparini, F. Egidi, J. Goings, B. Peng, A. Petrone, 
 T. Henderson, D. Ranasinghe, V. G. Zakrzewski, J. Gao, N. Rega, 
 G. Zheng, W. Liang, M. Hada, M. Ehara, K. Toyota, R. Fukuda, 
 J. Hasegawa, M. Ishida, T. Nakajima, Y. Honda, O. Kitao, H. Nakai, 
 T. Vreven, K. Throssell, J. A. Montgomery, Jr., J. E. Peralta, 
 F. Ogliaro, M. J. Bearpark, J. J. Heyd, E. N. Brothers, K. N. Kudin, 
 V. N. Staroverov, T. A. Keith, R. Kobayashi, J. Normand, 
 K. Raghavachari, A. P. Rendell, J. C. Burant, S. S. Iyengar, 
 J. Tomasi, M. Cossi, J. M. Millam, M. Klene, C. Adamo, R. Cammi, 
 J. W. Ochterski, R. L. Martin, K. Morokuma, O. Farkas, 
 J. B. Foresman, and D. J. Fox, Gaussian, Inc., Wallingford CT, 2019.
 
 ******************************************
 Gaussian 16:  EM64W-G16RevC.01 30-May-2019
                23-May-2023 
 ******************************************
 %chk=C:\Calculation\20230510.2\(CO)1(H2O)1\4.chk
 -------------------------------------
 # b3lyp/aug-cc-pvdz geom=connectivity
 -------------------------------------
 1/38=1,57=2,172=1/1;
 2/12=2,17=6,18=5,40=1/2;
 3/5=16,7=10,11=2,25=1,30=1,74=-5/1,2,3;
 4//1;
 5/5=2,38=5/2;
 6/7=2,8=2,9=2,10=2,28=1/1;
 99/5=1,9=1/99;
 -------------------
 Title Card Required
 -------------------
 Symbolic Z-matrix:
 Charge =  0 Multiplicity = 1
 O                     0.4328    0.14806   0. 
 H                     1.3928    0.14806   0. 
 H                     0.11235   1.053     0. 
 O                    -0.43036  -0.97047  -0.02318 
 C                    -1.00472  -1.78579   0.02318 
 
                          Input orientation:                          
 ---------------------------------------------------------------------
 Center     Atomic      Atomic             Coordinates (Angstroms)
 Number     Number       Type             X           Y           Z
 ---------------------------------------------------------------------
      1          8           0        0.432802    0.148064    0.000000
      2          1           0        1.392802    0.148064    0.000000
      3          1           0        0.112347    1.053000    0.000000
      4          8           0       -0.430361   -0.970474   -0.023176
      5          6           0       -1.004719   -1.785790    0.023176
 ---------------------------------------------------------------------
                    Distance matrix (angstroms):
                    1          2          3          4          5
     1  O    0.000000
     2  H    0.960000   0.000000
     3  H    0.960000   1.567952   0.000000
     4  O    1.413051   2.139062   2.095117   0.000000
     5  C    2.409730   3.080331   3.050755   0.998388   0.000000
 Stoichiometry    CH2O2
 Framework group  C1[X(CH2O2)]
 Deg. of freedom     9
 Full point group                 C1      NOp   1
 Largest Abelian subgroup         C1      NOp   1
 Largest concise Abelian subgroup C1      NOp   1
                         Standard orientation:                         
 ---------------------------------------------------------------------
 Center     Atomic      Atomic             Coordinates (Angstroms)
 Number     Number       Type             X           Y           Z
 ---------------------------------------------------------------------
      1          8           0       -1.027125   -0.006892   -0.006659
      2          1           0       -1.601872   -0.775830   -0.006436
      3          1           0       -1.560092    0.791554   -0.012120
      4          8           0        0.385446    0.014919    0.022973
      5          6           0        1.382566   -0.013323   -0.018658
 ---------------------------------------------------------------------
 Rotational constants (GHZ):         401.7261834          10.7466303          10.4724808
 Standard basis: Aug-CC-pVDZ (5D, 7F)
 There are    93 symmetry adapted cartesian basis functions of A   symmetry.
 There are    87 symmetry adapted basis functions of A   symmetry.
    87 basis functions,   151 primitive gaussians,    93 cartesian basis functions
    12 alpha electrons       12 beta electrons
       nuclear repulsion energy        75.1782028321 Hartrees.
 NAtoms=    5 NActive=    5 NUniq=    5 SFac= 1.00D+00 NAtFMM=   60 NAOKFM=F Big=F
 Integral buffers will be    131072 words long.
 Raffenetti 2 integral format.
 Two-electron integral symmetry is turned on.
 One-electron integrals computed using PRISM.
 NBasis=    87 RedAO= T EigKep=  2.14D-04  NBF=    87
 NBsUse=    87 1.00D-06 EigRej= -1.00D+00 NBFU=    87
 ExpMin= 2.97D-02 ExpMax= 1.17D+04 ExpMxC= 4.01D+02 IAcc=3 IRadAn=         5 AccDes= 0.00D+00
 Harris functional with IExCor=  402 and IRadAn=       5 diagonalized for initial guess.
 HarFok:  IExCor=  402 AccDes= 0.00D+00 IRadAn=         5 IDoV= 1 UseB2=F ITyADJ=14
 ICtDFT=  3500011 ScaDFX=  1.000000  1.000000  1.000000  1.000000
 FoFCou: FMM=F IPFlag=           0 FMFlag=      100000 FMFlg1=           0
         NFxFlg=           0 DoJE=T BraDBF=F KetDBF=T FulRan=T
         wScrn=  0.000000 ICntrl=       500 IOpCl=  0 I1Cent=   200000004 NGrid=           0
         NMat0=    1 NMatS0=      1 NMatT0=    0 NMatD0=    1 NMtDS0=    0 NMtDT0=    0
 Petite list used in FoFCou.
 Keep R1 ints in memory in canonical form, NReq=8247791.
 Requested convergence on RMS density matrix=1.00D-08 within 128 cycles.
 Requested convergence on MAX density matrix=1.00D-06.
 Requested convergence on             energy=1.00D-06.
 No special actions if energy rises.
 SCF Done:  E(RB3LYP) =  -189.379391346     A.U. after   13 cycles
            NFock= 13  Conv=0.37D-08     -V/T= 1.9908

 **********************************************************************

            Population analysis using the SCF Density.

 **********************************************************************

 Orbital symmetries:
       Occupied  (A) (A) (A) (A) (A) (A) (A) (A) (A) (A) (A) (A)
       Virtual   (A) (A) (A) (A) (A) (A) (A) (A) (A) (A) (A) (A)
                 (A) (A) (A) (A) (A) (A) (A) (A) (A) (A) (A) (A)
                 (A) (A) (A) (A) (A) (A) (A) (A) (A) (A) (A) (A)
                 (A) (A) (A) (A) (A) (A) (A) (A) (A) (A) (A) (A)
                 (A) (A) (A) (A) (A) (A) (A) (A) (A) (A) (A) (A)
                 (A) (A) (A) (A) (A) (A) (A) (A) (A) (A) (A) (A)
                 (A) (A) (A)
 The electronic state is 1-A.
 Alpha  occ. eigenvalues --  -19.23018 -19.16806 -10.24652  -1.26632  -1.08492
 Alpha  occ. eigenvalues --   -0.72951  -0.61166  -0.55082  -0.51254  -0.37041
 Alpha  occ. eigenvalues --   -0.35559  -0.17617
 Alpha virt. eigenvalues --   -0.01776  -0.00510   0.00745   0.02148   0.03998
 Alpha virt. eigenvalues --    0.05976   0.07598   0.08205   0.10180   0.12923
 Alpha virt. eigenvalues --    0.13037   0.16819   0.18256   0.20034   0.21562
 Alpha virt. eigenvalues --    0.24421   0.24702   0.29269   0.31179   0.32480
 Alpha virt. eigenvalues --    0.33437   0.39484   0.39660   0.43021   0.45731
 Alpha virt. eigenvalues --    0.48308   0.49786   0.51483   0.51790   0.61256
 Alpha virt. eigenvalues --    0.64585   0.70186   0.72738   0.75695   0.80691
 Alpha virt. eigenvalues --    0.85346   0.89940   0.96769   1.00760   1.02640
 Alpha virt. eigenvalues --    1.11333   1.17613   1.17767   1.20360   1.42660
 Alpha virt. eigenvalues --    1.46269   1.48403   1.49091   1.53161   1.54139
 Alpha virt. eigenvalues --    1.57413   1.81249   1.85325   1.87032   1.89069
 Alpha virt. eigenvalues --    1.96107   2.12888   2.14911   2.24638   2.43933
 Alpha virt. eigenvalues --    2.51171   2.58182   2.79684   2.98507   3.14208
 Alpha virt. eigenvalues --    3.17243   3.18270   3.20302   3.28820   3.30298
 Alpha virt. eigenvalues --    3.48061   3.64178   3.91058   4.18006   5.44459
          Condensed to atoms (all electrons):
               1          2          3          4          5
     1  O   11.589350  -0.358248  -0.321695  -3.734340   0.228961
     2  H   -0.358248   0.949201   0.098356   0.476255  -0.042536
     3  H   -0.321695   0.098356   0.906504   0.459206  -0.044246
     4  O   -3.734340   0.476255   0.459206  10.769660   0.217975
     5  C    0.228961  -0.042536  -0.044246   0.217975   5.825905
 Mulliken charges:
               1
     1  O    0.595971
     2  H   -0.123029
     3  H   -0.098126
     4  O   -0.188757
     5  C   -0.186060
 Sum of Mulliken charges =   0.00000
 Mulliken charges with hydrogens summed into heavy atoms:
               1
     1  O    0.374817
     4  O   -0.188757
     5  C   -0.186060
 Electronic spatial extent (au):  <R**2>=            139.8201
 Charge=              0.0000 electrons
 Dipole moment (field-independent basis, Debye):
    X=             -0.6158    Y=              0.1165    Z=              0.0807  Tot=              0.6319
 Quadrupole moment (field-independent basis, Debye-Ang):
   XX=            -22.7571   YY=            -15.8157   ZZ=            -18.1906
   XY=             -0.0457   XZ=              0.0491   YZ=             -0.0276
 Traceless Quadrupole moment (field-independent basis, Debye-Ang):
   XX=             -3.8360   YY=              3.1054   ZZ=              0.7305
   XY=             -0.0457   XZ=              0.0491   YZ=             -0.0276
 Octapole moment (field-independent basis, Debye-Ang**2):
  XXX=             -4.6185  YYY=              0.3377  ZZZ=              0.4389  XYY=             -2.4959
  XXY=              0.6401  XXZ=              0.6744  XZZ=              0.5307  YZZ=              0.0864
  YYZ=              0.1452  XYZ=             -0.0051
 Hexadecapole moment (field-independent basis, Debye-Ang**3):
 XXXX=           -210.9808 YYYY=            -23.8944 ZZZZ=            -19.8967 XXXY=              0.1584
 XXXZ=              0.3714 YYYX=              0.0359 YYYZ=             -0.0322 ZZZX=              0.1180
 ZZZY=             -0.0249 XXYY=            -30.4978 XXZZ=            -33.8446 YYZZ=             -7.5344
 XXYZ=             -0.0675 YYXZ=              0.0346 ZZXY=              0.0542
 N-N= 7.517820283212D+01 E-N=-5.979809471296D+02  KE= 1.911308928503D+02
 Unable to Open any file for archive entry.
 1|1|UNPC-TABISEAL|SP|RB3LYP|Aug-CC-pVDZ|C1H2O2|17108|23-May-2023|0||# 
 b3lyp/aug-cc-pvdz geom=connectivity||Title Card Required||0,1|O,0,0.43
 280185,0.14806378,0.|H,0,1.39280185,0.14806378,0.|H,0,0.11234726,1.052
 99961,0.|O,0,-0.43036058,-0.97047371,-0.02317564|C,0,-1.00471923,-1.78
 579049,0.02317564||Version=EM64W-G16RevC.01|State=1-A|HF=-189.3793913|
 RMSD=3.675e-009|Dipole=0.1083221,0.2212967,-0.0330565|Quadrupole=0.426
 4,-0.9690034,0.5426034,-2.484345,0.0201744,0.0499793|PG=C01 [X(C1H2O2)
 ]||@
 The archive entry for this job was punched.


 I WOULD TAKE COUNSEL OF MYSELF.
 I WOULD STOP AND LOOK WITHIN
 AND LOOKING WITHIN, LOOK BACK, ALSO
 THAT I MAY LOOK AHEAD WITH CLEARER UNDERSTANDING
 OF THE WAY I HAVE BEEN MOVING, AND IN WHAT DIRECTION.
 I NEED TO KNOW IF I AM GOING FORWARD OR RETREATING,
 WHETHER I HAVE BEEN WASTING, OR ENJOYING
 THE PRECIOUS MOMENTS OF LIFE.  THERE HAVE BEEN FRICTIONS,
 ANNOYANCES AND SOMETIMES WRATH,
 BUT WERE THEY BECAUSE I WAS RIGHT AND OTHERS WRONG.....
 HAVE I HAD MY THOUGHTS TOO SHARPLY FOCUSED
 ON THAT WHICH PLEASED ME, SERVED MY SELF-ESTEEM,
 UNDERGIRDED MY SECURITY,
 OF WHICH I DID NOT INQUIRE WHETHER IT SERVED OR HAMPERED OTHERS.....
 HAVE I BEEN TRYING TO STOP THE CLOCK
 TO HOLD THE WORLD
 IN PERPETUATION OF WHAT WAS AN IS ALREADY SLIPPING AWAY.....
 HAVE I BEEN CRITICAL OF OTHERS FOR WHAT REALLY NEEDED CHANGING IN ME...
 LET ME INDEED TAKE COUNSEL OF MYSELF
 AND SET MY DIRECTIONS STRAIGHT.

                          R.T. WESTON AS ADAPTED BY D. OSBORN 1967
 Job cpu time:       0 days  0 hours  0 minutes 23.0 seconds.
 Elapsed time:       0 days  0 hours  0 minutes 21.9 seconds.
 File lengths (MBytes):  RWF=      6 Int=      0 D2E=      0 Chk=      2 Scr=      1
 Normal termination of Gaussian 16 at Tue May 23 16:55:27 2023.
