 Entering Link 1 = C:\G16W\l1.exe PID=      7220.
  
 Copyright (c) 1988-2019, Gaussian, Inc.  All Rights Reserved.
  
 This is part of the Gaussian(R) 16 program.  It is based on
 the Gaussian(R) 09 system (copyright 2009, Gaussian, Inc.),
 the Gaussian(R) 03 system (copyright 2003, Gaussian, Inc.),
 the Gaussian(R) 98 system (copyright 1998, Gaussian, Inc.),
 the Gaussian(R) 94 system (copyright 1995, Gaussian, Inc.),
 the Gaussian 92(TM) system (copyright 1992, Gaussian, Inc.),
 the Gaussian 90(TM) system (copyright 1990, Gaussian, Inc.),
 the Gaussian 88(TM) system (copyright 1988, Gaussian, Inc.),
 the Gaussian 86(TM) system (copyright 1986, Carnegie Mellon
 University), and the Gaussian 82(TM) system (copyright 1983,
 Carnegie Mellon University). Gaussian is a federally registered
 trademark of Gaussian, Inc.
  
 This software contains proprietary and confidential information,
 including trade secrets, belonging to Gaussian, Inc.
  
 This software is provided under written license and may be
 used, copied, transmitted, or stored only in accord with that
 written license.
  
 The following legend is applicable only to US Government
 contracts under FAR:
  
                    RESTRICTED RIGHTS LEGEND
  
 Use, reproduction and disclosure by the US Government is
 subject to restrictions as set forth in subparagraphs (a)
 and (c) of the Commercial Computer Software - Restricted
 Rights clause in FAR 52.227-19.
  
 Gaussian, Inc.
 340 Quinnipiac St., Bldg. 40, Wallingford CT 06492
  
  
 ---------------------------------------------------------------
 Warning -- This program may not be used in any manner that
 competes with the business of Gaussian, Inc. or will provide
 assistance to any competitor of Gaussian, Inc.  The licensee
 of this program is prohibited from giving any competitor of
 Gaussian, Inc. access to this program.  By using this program,
 the user acknowledges that Gaussian, Inc. is engaged in the
 business of creating and licensing software in the field of
 computational chemistry and represents and warrants to the
 licensee that it is not a competitor of Gaussian, Inc. and that
 it will not use this program in any manner prohibited above.
 ---------------------------------------------------------------
  

 Cite this work as:
 Gaussian 16, Revision C.01,
 M. J. Frisch, G. W. Trucks, H. B. Schlegel, G. E. Scuseria, 
 M. A. Robb, J. R. Cheeseman, G. Scalmani, V. Barone, 
 G. A. Petersson, H. Nakatsuji, X. Li, M. Caricato, A. V. Marenich, 
 J. Bloino, B. G. Janesko, R. Gomperts, B. Mennucci, H. P. Hratchian, 
 J. V. Ortiz, A. F. Izmaylov, J. L. Sonnenberg, D. Williams-Young, 
 F. Ding, F. Lipparini, F. Egidi, J. Goings, B. Peng, A. Petrone, 
 T. Henderson, D. Ranasinghe, V. G. Zakrzewski, J. Gao, N. Rega, 
 G. Zheng, W. Liang, M. Hada, M. Ehara, K. Toyota, R. Fukuda, 
 J. Hasegawa, M. Ishida, T. Nakajima, Y. Honda, O. Kitao, H. Nakai, 
 T. Vreven, K. Throssell, J. A. Montgomery, Jr., J. E. Peralta, 
 F. Ogliaro, M. J. Bearpark, J. J. Heyd, E. N. Brothers, K. N. Kudin, 
 V. N. Staroverov, T. A. Keith, R. Kobayashi, J. Normand, 
 K. Raghavachari, A. P. Rendell, J. C. Burant, S. S. Iyengar, 
 J. Tomasi, M. Cossi, J. M. Millam, M. Klene, C. Adamo, R. Cammi, 
 J. W. Ochterski, R. L. Martin, K. Morokuma, O. Farkas, 
 J. B. Foresman, and D. J. Fox, Gaussian, Inc., Wallingford CT, 2019.
 
 ******************************************
 Gaussian 16:  EM64W-G16RevC.01 30-May-2019
                20-Jun-2023 
 ******************************************
 %chk=Z:\Desktop\0620\CO(1)H(1)1_2.chk
 ----------------------------------------
 # opt b3lyp/6-31g(d,p) geom=connectivity
 ----------------------------------------
 1/18=20,19=15,26=3,38=1,57=2/1,3;
 2/9=110,12=2,17=6,18=5,40=1/2;
 3/5=1,6=6,7=101,11=2,25=1,30=1,71=1,74=-5/1,2,3;
 4//1;
 5/5=2,38=5/2;
 6/7=2,8=2,9=2,10=2,28=1/1;
 7//1,2,3,16;
 1/18=20,19=15,26=3/3(2);
 2/9=110/2;
 99//99;
 2/9=110/2;
 3/5=1,6=6,7=101,11=2,25=1,30=1,71=1,74=-5/1,2,3;
 4/5=5,16=3,69=1/1;
 5/5=2,38=5/2;
 7//1,2,3,16;
 1/18=20,19=15,26=3/3(-5);
 2/9=110/2;
 6/7=2,8=2,9=2,10=2,19=2,28=1/1;
 99/9=1/99;
 -------------------
 Title Card Required
 -------------------
 Symbolic Z-matrix:
 Charge =  0 Multiplicity = 1
 O                    -0.13566  -0.5814    0. 
 H                     0.82434  -0.5814    0. 
 H                    -0.45611   0.32354   0. 
 O                     2.64071  -0.50579   0. 
 C                     3.83216  -0.34693   0. 
 
 Add virtual bond connecting atoms O4         and H2         Dist= 3.44D+00.

 GradGradGradGradGradGradGradGradGradGradGradGradGradGradGradGradGradGrad
 Berny optimization.
 Initialization pass.
                           ----------------------------
                           !    Initial Parameters    !
                           ! (Angstroms and Degrees)  !
 --------------------------                            --------------------------
 ! Name  Definition              Value          Derivative Info.                !
 --------------------------------------------------------------------------------
 ! R1    R(1,2)                  0.96           estimate D2E/DX2                !
 ! R2    R(1,3)                  0.96           estimate D2E/DX2                !
 ! R3    R(2,4)                  1.8179         estimate D2E/DX2                !
 ! R4    R(4,5)                  1.202          estimate D2E/DX2                !
 ! A1    A(2,1,3)              109.5            estimate D2E/DX2                !
 ! A2    L(1,2,4,3,-1)         177.6164         estimate D2E/DX2                !
 ! A3    L(2,4,5,3,-1)         174.789          estimate D2E/DX2                !
 ! A4    L(1,2,4,3,-2)         180.0            estimate D2E/DX2                !
 ! A5    L(2,4,5,3,-2)         180.0            estimate D2E/DX2                !
 --------------------------------------------------------------------------------
 Trust Radius=3.00D-01 FncErr=1.00D-07 GrdErr=1.00D-06 EigMax=2.50D+02 EigMin=1.00D-04
 Number of steps in this run=     20 maximum allowed number of steps=    100.
 GradGradGradGradGradGradGradGradGradGradGradGradGradGradGradGradGradGrad

                          Input orientation:                          
 ---------------------------------------------------------------------
 Center     Atomic      Atomic             Coordinates (Angstroms)
 Number     Number       Type             X           Y           Z
 ---------------------------------------------------------------------
      1          8           0       -0.135659   -0.581395    0.000000
      2          1           0        0.824341   -0.581395    0.000000
      3          1           0       -0.456114    0.323540    0.000000
      4          8           0        2.640706   -0.505787    0.000000
      5          6           0        3.832162   -0.346926    0.000000
 ---------------------------------------------------------------------
                    Distance matrix (angstroms):
                    1          2          3          4          5
     1  O    0.000000
     2  H    0.960000   0.000000
     3  H    0.960000   1.567952   0.000000
     4  O    2.777394   1.817938   3.205944   0.000000
     5  C    3.974743   3.016946   4.340372   1.202000   0.000000
 Stoichiometry    CH2O2
 Framework group  CS[SG(CH2O2)]
 Deg. of freedom     7
 Full point group                 CS      NOp   2
 Largest Abelian subgroup         CS      NOp   2
 Largest concise Abelian subgroup C1      NOp   1
                         Standard orientation:                         
 ---------------------------------------------------------------------
 Center     Atomic      Atomic             Coordinates (Angstroms)
 Number     Number       Type             X           Y           Z
 ---------------------------------------------------------------------
      1          8           0       -0.228430   -1.934412    0.000000
      2          1           0       -0.175548   -0.975870    0.000000
      3          1           0        0.657480   -2.304228    0.000000
      4          8           0        0.000000    0.833573    0.000000
      5          6           0        0.224251    2.014469    0.000000
 ---------------------------------------------------------------------
 Rotational constants (GHZ):         561.0746824           3.9874614           3.9593232
 Standard basis: 6-31G(d,p) (6D, 7F)
 There are    41 symmetry adapted cartesian basis functions of A'  symmetry.
 There are    14 symmetry adapted cartesian basis functions of A"  symmetry.
 There are    41 symmetry adapted basis functions of A'  symmetry.
 There are    14 symmetry adapted basis functions of A"  symmetry.
    55 basis functions,    98 primitive gaussians,    55 cartesian basis functions
    12 alpha electrons       12 beta electrons
       nuclear repulsion energy        54.3064990142 Hartrees.
 NAtoms=    5 NActive=    5 NUniq=    5 SFac= 1.00D+00 NAtFMM=   60 NAOKFM=F Big=F
 Integral buffers will be    131072 words long.
 Raffenetti 2 integral format.
 Two-electron integral symmetry is turned on.
 One-electron integrals computed using PRISM.
 NBasis=    55 RedAO= T EigKep=  9.16D-03  NBF=    41    14
 NBsUse=    55 1.00D-06 EigRej= -1.00D+00 NBFU=    41    14
 ExpMin= 1.61D-01 ExpMax= 5.48D+03 ExpMxC= 8.25D+02 IAcc=3 IRadAn=         5 AccDes= 0.00D+00
 Harris functional with IExCor=  402 and IRadAn=       5 diagonalized for initial guess.
 HarFok:  IExCor=  402 AccDes= 0.00D+00 IRadAn=         5 IDoV= 1 UseB2=F ITyADJ=14
 ICtDFT=  3500011 ScaDFX=  1.000000  1.000000  1.000000  1.000000
 FoFCou: FMM=F IPFlag=           0 FMFlag=      100000 FMFlg1=           0
         NFxFlg=           0 DoJE=T BraDBF=F KetDBF=T FulRan=T
         wScrn=  0.000000 ICntrl=       500 IOpCl=  0 I1Cent=   200000004 NGrid=           0
         NMat0=    1 NMatS0=      1 NMatT0=    0 NMatD0=    1 NMtDS0=    0 NMtDT0=    0
 Petite list used in FoFCou.
 Initial guess orbital symmetries:
       Occupied  (A') (A') (A') (A') (A') (A') (A') (A') (A") (A')
                 (A") (A')
       Virtual   (A') (A") (A') (A') (A') (A') (A") (A') (A') (A')
                 (A') (A") (A') (A') (A") (A') (A') (A') (A') (A")
                 (A') (A") (A') (A") (A') (A") (A') (A") (A') (A')
                 (A') (A') (A") (A') (A") (A") (A') (A') (A') (A')
                 (A') (A') (A')
 The electronic state of the initial guess is 1-A'.
 Keep R1 ints in memory in symmetry-blocked form, NReq=2067981.
 Requested convergence on RMS density matrix=1.00D-08 within 128 cycles.
 Requested convergence on MAX density matrix=1.00D-06.
 Requested convergence on             energy=1.00D-06.
 No special actions if energy rises.
 Integral accuracy reduced to 1.0D-05 until final iterations.
 Initial convergence to 1.0D-05 achieved.  Increase integral accuracy.
 SCF Done:  E(RB3LYP) =  -189.719805756     A.U. after   12 cycles
            NFock= 12  Conv=0.52D-08     -V/T= 2.0095

 **********************************************************************

            Population analysis using the SCF Density.

 **********************************************************************

 Orbital symmetries:
       Occupied  (A') (A') (A') (A') (A') (A') (A') (A') (A") (A')
                 (A') (A")
       Virtual   (A') (A") (A') (A') (A') (A') (A") (A') (A') (A')
                 (A') (A") (A') (A') (A") (A') (A') (A') (A') (A")
                 (A') (A") (A') (A") (A') (A") (A') (A") (A') (A')
                 (A') (A') (A") (A') (A") (A") (A') (A') (A') (A')
                 (A') (A') (A')
 The electronic state is 1-A'.
 Alpha  occ. eigenvalues --  -19.28433 -19.11346 -10.35012  -1.14966  -0.97699
 Alpha  occ. eigenvalues --   -0.61351  -0.50271  -0.47327  -0.47294  -0.40039
 Alpha  occ. eigenvalues --   -0.34004  -0.27346
 Alpha virt. eigenvalues --   -0.06923  -0.06899   0.09666   0.19848   0.27888
 Alpha virt. eigenvalues --    0.49435   0.49457   0.55527   0.62954   0.78422
 Alpha virt. eigenvalues --    0.79506   0.85784   0.86722   0.92853   0.93621
 Alpha virt. eigenvalues --    1.04447   1.08769   1.34744   1.45536   1.46535
 Alpha virt. eigenvalues --    1.46918   1.47623   1.47625   1.54178   1.63438
 Alpha virt. eigenvalues --    1.68083   1.88407   1.88408   2.25115   2.25290
 Alpha virt. eigenvalues --    2.36171   2.49526   2.49900   2.57807   2.65254
 Alpha virt. eigenvalues --    2.70618   2.85777   3.05599   3.37506   3.53712
 Alpha virt. eigenvalues --    3.70324   3.85294   4.01436
          Condensed to atoms (all electrons):
               1          2          3          4          5
     1  O    8.086908   0.291364   0.289667  -0.010919   0.000335
     2  H    0.291364   0.386995  -0.030242   0.021326   0.000381
     3  H    0.289667  -0.030242   0.441909   0.000776   0.000001
     4  O   -0.010919   0.021326   0.000776   7.682145   0.526864
     5  C    0.000335   0.000381   0.000001   0.526864   5.222941
 Mulliken charges:
               1
     1  O   -0.657355
     2  H    0.330177
     3  H    0.297890
     4  O   -0.220191
     5  C    0.249478
 Sum of Mulliken charges =   0.00000
 Mulliken charges with hydrogens summed into heavy atoms:
               1
     1  O   -0.029288
     4  O   -0.220191
     5  C    0.249478
 Electronic spatial extent (au):  <R**2>=            279.7305
 Charge=              0.0000 electrons
 Dipole moment (field-independent basis, Debye):
    X=              1.7095    Y=              1.8375    Z=              0.0000  Tot=              2.5098
 Quadrupole moment (field-independent basis, Debye-Ang):
   XX=            -16.0231   YY=            -19.9462   ZZ=            -17.0849
   XY=             -4.4281   XZ=              0.0000   YZ=              0.0000
 Traceless Quadrupole moment (field-independent basis, Debye-Ang):
   XX=              1.6616   YY=             -2.2615   ZZ=              0.5998
   XY=             -4.4281   XZ=              0.0000   YZ=              0.0000
 Octapole moment (field-independent basis, Debye-Ang**2):
  XXX=              0.3676  YYY=             -9.8456  ZZZ=              0.0000  XYY=              8.3236
  XXY=             -3.1702  XXZ=              0.0000  XZZ=              0.0641  YZZ=             -0.6400
  YYZ=              0.0000  XYZ=              0.0000
 Hexadecapole moment (field-independent basis, Debye-Ang**3):
 XXXX=            -16.8781 YYYY=           -334.9783 ZZZZ=            -13.0570 XXXY=            -14.6085
 XXXZ=              0.0000 YYYX=            -40.3995 YYYZ=              0.0000 ZZZX=              0.0000
 ZZZY=              0.0000 XXYY=            -51.5949 XXZZ=             -5.1066 YYZZ=            -55.0509
 XXYZ=              0.0000 YYXZ=              0.0000 ZZXY=             -4.5867
 N-N= 5.430649901416D+01 E-N=-5.546083300953D+02  KE= 1.879352242051D+02
 Symmetry A'   KE= 1.793250994197D+02
 Symmetry A"   KE= 8.610124785363D+00
 Calling FoFJK, ICntrl=      2127 FMM=F ISym2X=1 I1Cent= 0 IOpClX= 0 NMat=1 NMatS=1 NMatT=0.
 ***** Axes restored to original set *****
 -------------------------------------------------------------------
 Center     Atomic                   Forces (Hartrees/Bohr)
 Number     Number              X              Y              Z
 -------------------------------------------------------------------
      1        8          -0.011518276   -0.011731938    0.000000000
      2        1          -0.004908725    0.007542159    0.000000000
      3        1           0.006507580    0.003907233    0.000000000
      4        8           0.128756013    0.016239864    0.000000000
      5        6          -0.118836592   -0.015957318    0.000000000
 -------------------------------------------------------------------
 Cartesian Forces:  Max     0.128756013 RMS     0.045918420

 GradGradGradGradGradGradGradGradGradGradGradGradGradGradGradGradGradGrad
 Berny optimization.
 FormGI is forming the generalized inverse of G from B-inverse, IUseBI=4.
 Internal  Forces:  Max     0.119903122 RMS     0.040394258
 Search for a local minimum.
 Step number   1 out of a maximum of   20
 All quantities printed in internal units (Hartrees-Bohrs-Radians)
 Mixed Optimization -- RFO/linear search
 Second derivative matrix not updated -- first step.
 The second derivative matrix:
                          R1        R2        R3        R4        A1
           R1           0.55473
           R2           0.00000   0.55473
           R3           0.00000   0.00000   0.05915
           R4           0.00000   0.00000   0.00000   1.03825
           A1           0.00000   0.00000   0.00000   0.00000   0.16000
           A2           0.00000   0.00000   0.00000   0.00000   0.00000
           A3           0.00000   0.00000   0.00000   0.00000   0.00000
           A4           0.00000   0.00000   0.00000   0.00000   0.00000
           A5           0.00000   0.00000   0.00000   0.00000   0.00000
                          A2        A3        A4        A5
           A2           0.00230
           A3           0.00000   0.04311
           A4           0.00000   0.00000   0.00230
           A5           0.00000   0.00000   0.00000   0.04311
 ITU=  0
     Eigenvalues ---    0.00230   0.00230   0.04311   0.04311   0.05915
     Eigenvalues ---    0.16000   0.55473   0.55473   1.03825
 RFO step:  Lambda=-1.60556329D-02 EMin= 2.30000000D-03
 Linear search not attempted -- first point.
 Iteration  1 RMS(Cart)=  0.04200489 RMS(Int)=  0.00070380
 Iteration  2 RMS(Cart)=  0.00074192 RMS(Int)=  0.00000010
 Iteration  3 RMS(Cart)=  0.00000010 RMS(Int)=  0.00000000
 ClnCor:  largest displacement from symmetrization is 1.99D-12 for atom     4.
 Variable       Old X    -DE/DX   Delta X   Delta X   Delta X     New X
                                 (Linear)    (Quad)   (Total)
    R1        1.81414   0.00501   0.00000   0.00878   0.00878   1.82292
    R2        1.81414   0.00151   0.00000   0.00265   0.00265   1.81678
    R3        3.43541   0.00992   0.00000   0.13194   0.13194   3.56734
    R4        2.27145  -0.11990   0.00000  -0.11373  -0.11373   2.15772
    A1        1.91114  -0.01349   0.00000  -0.07665  -0.07665   1.83449
    A2        3.09999   0.00070   0.00000   0.03816   0.03816   3.13815
    A3        3.05064   0.00025   0.00000   0.00428   0.00428   3.05492
    A4        3.14159   0.00000   0.00000   0.00000   0.00000   3.14159
    A5        3.14159   0.00000   0.00000   0.00000   0.00000   3.14159
         Item               Value     Threshold  Converged?
 Maximum Force            0.119903     0.000450     NO 
 RMS     Force            0.040394     0.000300     NO 
 Maximum Displacement     0.089922     0.001800     NO 
 RMS     Displacement     0.041969     0.001200     NO 
 Predicted change in Energy=-8.331073D-03
 GradGradGradGradGradGradGradGradGradGradGradGradGradGradGradGradGradGrad

                          Input orientation:                          
 ---------------------------------------------------------------------
 Center     Atomic      Atomic             Coordinates (Angstroms)
 Number     Number       Type             X           Y           Z
 ---------------------------------------------------------------------
      1          8           0       -0.162286   -0.597626    0.000000
      2          1           0        0.801820   -0.565345    0.000000
      3          1           0       -0.443789    0.321638    0.000000
      4          8           0        2.688291   -0.495688    0.000000
      5          6           0        3.821401   -0.354942    0.000000
 ---------------------------------------------------------------------
                    Distance matrix (angstroms):
                    1          2          3          4          5
     1  O    0.000000
     2  H    0.964645   0.000000
     3  H    0.961401   1.529144   0.000000
     4  O    2.852399   1.887757   3.236966   0.000000
     5  C    3.991072   3.026903   4.318519   1.141818   0.000000
 Stoichiometry    CH2O2
 Framework group  CS[SG(CH2O2)]
 Deg. of freedom     7
 Full point group                 CS      NOp   2
 Largest Abelian subgroup         CS      NOp   2
 Largest concise Abelian subgroup C1      NOp   1
                         Standard orientation:                         
 ---------------------------------------------------------------------
 Center     Atomic      Atomic             Coordinates (Angstroms)
 Number     Number       Type             X           Y           Z
 ---------------------------------------------------------------------
      1          8           0       -0.207096   -1.968252    0.000000
      2          1           0       -0.139248   -1.005996    0.000000
      3          1           0        0.701150   -2.283498    0.000000
      4          8           0        0.000000    0.876618    0.000000
      5          6           0        0.182478    2.003761    0.000000
 ---------------------------------------------------------------------
 Rotational constants (GHZ):         567.6658050           3.9121147           3.8853386
 Standard basis: 6-31G(d,p) (6D, 7F)
 There are    41 symmetry adapted cartesian basis functions of A'  symmetry.
 There are    14 symmetry adapted cartesian basis functions of A"  symmetry.
 There are    41 symmetry adapted basis functions of A'  symmetry.
 There are    14 symmetry adapted basis functions of A"  symmetry.
    55 basis functions,    98 primitive gaussians,    55 cartesian basis functions
    12 alpha electrons       12 beta electrons
       nuclear repulsion energy        54.9558754588 Hartrees.
 NAtoms=    5 NActive=    5 NUniq=    5 SFac= 1.00D+00 NAtFMM=   60 NAOKFM=F Big=F
 Integral buffers will be    131072 words long.
 Raffenetti 2 integral format.
 Two-electron integral symmetry is turned on.
 One-electron integrals computed using PRISM.
 NBasis=    55 RedAO= T EigKep=  7.91D-03  NBF=    41    14
 NBsUse=    55 1.00D-06 EigRej= -1.00D+00 NBFU=    41    14
 Initial guess from the checkpoint file:  "Z:\Desktop\0620\CO(1)H(1)1_2.chk"
 B after Tr=     0.000000    0.000000    0.000000
         Rot=    0.999971    0.000000    0.000000   -0.007641 Ang=  -0.88 deg.
 Initial guess orbital symmetries:
       Occupied  (A') (A') (A') (A') (A') (A') (A') (A') (A") (A')
                 (A') (A")
       Virtual   (A') (A") (A') (A') (A') (A') (A") (A') (A') (A')
                 (A') (A") (A') (A') (A") (A') (A') (A') (A') (A")
                 (A') (A") (A') (A") (A') (A") (A') (A") (A') (A')
                 (A') (A') (A") (A') (A") (A") (A') (A') (A') (A')
                 (A') (A') (A')
 ExpMin= 1.61D-01 ExpMax= 5.48D+03 ExpMxC= 8.25D+02 IAcc=3 IRadAn=         5 AccDes= 0.00D+00
 Harris functional with IExCor=  402 and IRadAn=       5 diagonalized for initial guess.
 HarFok:  IExCor=  402 AccDes= 0.00D+00 IRadAn=         5 IDoV= 1 UseB2=F ITyADJ=14
 ICtDFT=  3500011 ScaDFX=  1.000000  1.000000  1.000000  1.000000
 FoFCou: FMM=F IPFlag=           0 FMFlag=      100000 FMFlg1=           0
         NFxFlg=           0 DoJE=T BraDBF=F KetDBF=T FulRan=T
         wScrn=  0.000000 ICntrl=       500 IOpCl=  0 I1Cent=   200000004 NGrid=           0
         NMat0=    1 NMatS0=      1 NMatT0=    0 NMatD0=    1 NMtDS0=    0 NMtDT0=    0
 Petite list used in FoFCou.
 Keep R1 ints in memory in symmetry-blocked form, NReq=2067981.
 Requested convergence on RMS density matrix=1.00D-08 within 128 cycles.
 Requested convergence on MAX density matrix=1.00D-06.
 Requested convergence on             energy=1.00D-06.
 No special actions if energy rises.
 Integral accuracy reduced to 1.0D-05 until final iterations.
 Initial convergence to 1.0D-05 achieved.  Increase integral accuracy.
 SCF Done:  E(RB3LYP) =  -189.729268986     A.U. after   11 cycles
            NFock= 11  Conv=0.21D-08     -V/T= 2.0083
 Calling FoFJK, ICntrl=      2127 FMM=F ISym2X=1 I1Cent= 0 IOpClX= 0 NMat=1 NMatS=1 NMatT=0.
 ***** Axes restored to original set *****
 -------------------------------------------------------------------
 Center     Atomic                   Forces (Hartrees/Bohr)
 Number     Number              X              Y              Z
 -------------------------------------------------------------------
      1        8          -0.001700635   -0.004361219    0.000000000
      2        1          -0.006066504    0.001054120    0.000000000
      3        1           0.000444657    0.002951761    0.000000000
      4        8           0.013871059    0.001379462    0.000000000
      5        6          -0.006548578   -0.001024124    0.000000000
 -------------------------------------------------------------------
 Cartesian Forces:  Max     0.013871059 RMS     0.004523852

 GradGradGradGradGradGradGradGradGradGradGradGradGradGradGradGradGradGrad
 Berny optimization.
 Using GEDIIS/GDIIS optimizer.
 FormGI is forming the generalized inverse of G from B-inverse, IUseBI=4.
 Internal  Forces:  Max     0.007330603 RMS     0.003532153
 Search for a local minimum.
 Step number   2 out of a maximum of   20
 All quantities printed in internal units (Hartrees-Bohrs-Radians)
 Mixed Optimization -- RFO/linear search
 Update second derivatives using D2CorX and points    1    2
 DE= -9.46D-03 DEPred=-8.33D-03 R= 1.14D+00
 TightC=F SS=  1.41D+00  RLast= 1.94D-01 DXNew= 5.0454D-01 5.8308D-01
 Trust test= 1.14D+00 RLast= 1.94D-01 DXMaxT set to 5.05D-01
 The second derivative matrix:
                          R1        R2        R3        R4        A1
           R1           0.55417
           R2          -0.00077   0.55469
           R3          -0.00178  -0.00096   0.05568
           R4           0.00749   0.02069   0.03887   1.04397
           A1           0.00094   0.00210   0.00415  -0.00433   0.15907
           A2           0.00012  -0.00005   0.00006  -0.00375  -0.00037
           A3          -0.00011   0.00000  -0.00013   0.00300   0.00030
           A4           0.00000   0.00000   0.00000   0.00000   0.00000
           A5           0.00000   0.00000   0.00000   0.00000   0.00000
                          A2        A3        A4        A5
           A2           0.00232
           A3          -0.00001   0.04311
           A4           0.00000   0.00000   0.00230
           A5           0.00000   0.00000   0.00000   0.04311
 ITU=  1  0
 Use linear search instead of GDIIS.
     Eigenvalues ---    0.00230   0.00231   0.04309   0.04311   0.05397
     Eigenvalues ---    0.15921   0.55288   0.55504   1.04651
 RFO step:  Lambda=-6.51655706D-04 EMin= 2.30000000D-03
 Quartic linear search produced a step of  0.11068.
 Iteration  1 RMS(Cart)=  0.05808765 RMS(Int)=  0.00207177
 Iteration  2 RMS(Cart)=  0.00252223 RMS(Int)=  0.00000116
 Iteration  3 RMS(Cart)=  0.00000184 RMS(Int)=  0.00000000
 Iteration  4 RMS(Cart)=  0.00000000 RMS(Int)=  0.00000000
 ClnCor:  largest displacement from symmetrization is 2.73D-12 for atom     2.
 Variable       Old X    -DE/DX   Delta X   Delta X   Delta X     New X
                                 (Linear)    (Quad)   (Total)
    R1        1.82292   0.00130   0.00097   0.00179   0.00276   1.82567
    R2        1.81678   0.00269   0.00029   0.00514   0.00543   1.82221
    R3        3.56734   0.00733   0.01460   0.10152   0.11613   3.68347
    R4        2.15772  -0.00662  -0.01259   0.00243  -0.01016   2.14756
    A1        1.83449  -0.00234  -0.00848  -0.00522  -0.01370   1.82079
    A2        3.13815   0.00015   0.00422  -0.09328  -0.08906   3.04910
    A3        3.05492   0.00045   0.00047   0.01003   0.01050   3.06543
    A4        3.14159   0.00000   0.00000   0.00000   0.00000   3.14159
    A5        3.14159   0.00000   0.00000   0.00000   0.00000   3.14159
         Item               Value     Threshold  Converged?
 Maximum Force            0.007331     0.000450     NO 
 RMS     Force            0.003532     0.000300     NO 
 Maximum Displacement     0.102842     0.001800     NO 
 RMS     Displacement     0.058127     0.001200     NO 
 Predicted change in Energy=-5.550140D-04
 GradGradGradGradGradGradGradGradGradGradGradGradGradGradGradGradGradGrad

                          Input orientation:                          
 ---------------------------------------------------------------------
 Center     Atomic      Atomic             Coordinates (Angstroms)
 Number     Number       Type             X           Y           Z
 ---------------------------------------------------------------------
      1          8           0       -0.198852   -0.593255    0.000000
      2          1           0        0.766889   -0.619767    0.000000
      3          1           0       -0.411679    0.347238    0.000000
      4          8           0        2.711975   -0.493065    0.000000
      5          6           0        3.837104   -0.333115    0.000000
 ---------------------------------------------------------------------
                    Distance matrix (angstroms):
                    1          2          3          4          5
     1  O    0.000000
     2  H    0.966105   0.000000
     3  H    0.964273   1.524507   0.000000
     4  O    2.912552   1.949209   3.234706   0.000000
     5  C    4.044332   3.083569   4.302911   1.136442   0.000000
 Stoichiometry    CH2O2
 Framework group  CS[SG(CH2O2)]
 Deg. of freedom     7
 Full point group                 CS      NOp   2
 Largest Abelian subgroup         CS      NOp   2
 Largest concise Abelian subgroup C1      NOp   1
                         Standard orientation:                         
 ---------------------------------------------------------------------
 Center     Atomic      Atomic             Coordinates (Angstroms)
 Number     Number       Type             X           Y           Z
 ---------------------------------------------------------------------
      1          8           0       -0.217469   -2.003498    0.000000
      2          1           0       -0.205023   -1.037473    0.000000
      3          1           0        0.713678   -2.254070    0.000000
      4          8           0        0.000000    0.900924    0.000000
      5          6           0        0.205183    2.018689    0.000000
 ---------------------------------------------------------------------
 Rotational constants (GHZ):         526.4985391           3.8023562           3.7750926
 Standard basis: 6-31G(d,p) (6D, 7F)
 There are    41 symmetry adapted cartesian basis functions of A'  symmetry.
 There are    14 symmetry adapted cartesian basis functions of A"  symmetry.
 There are    41 symmetry adapted basis functions of A'  symmetry.
 There are    14 symmetry adapted basis functions of A"  symmetry.
    55 basis functions,    98 primitive gaussians,    55 cartesian basis functions
    12 alpha electrons       12 beta electrons
       nuclear repulsion energy        54.6269957009 Hartrees.
 NAtoms=    5 NActive=    5 NUniq=    5 SFac= 1.00D+00 NAtFMM=   60 NAOKFM=F Big=F
 Integral buffers will be    131072 words long.
 Raffenetti 2 integral format.
 Two-electron integral symmetry is turned on.
 One-electron integrals computed using PRISM.
 NBasis=    55 RedAO= T EigKep=  7.80D-03  NBF=    41    14
 NBsUse=    55 1.00D-06 EigRej= -1.00D+00 NBFU=    41    14
 Initial guess from the checkpoint file:  "Z:\Desktop\0620\CO(1)H(1)1_2.chk"
 B after Tr=     0.000000    0.000000    0.000000
         Rot=    0.999996    0.000000    0.000000    0.002694 Ang=   0.31 deg.
 Initial guess orbital symmetries:
       Occupied  (A') (A') (A') (A') (A') (A') (A') (A') (A") (A')
                 (A') (A")
       Virtual   (A') (A") (A') (A') (A') (A') (A") (A') (A') (A')
                 (A') (A") (A') (A') (A") (A') (A') (A') (A') (A")
                 (A') (A") (A') (A") (A') (A") (A') (A") (A') (A')
                 (A') (A') (A") (A') (A") (A") (A') (A') (A') (A')
                 (A') (A') (A')
 ExpMin= 1.61D-01 ExpMax= 5.48D+03 ExpMxC= 8.25D+02 IAcc=3 IRadAn=         5 AccDes= 0.00D+00
 Harris functional with IExCor=  402 and IRadAn=       5 diagonalized for initial guess.
 HarFok:  IExCor=  402 AccDes= 0.00D+00 IRadAn=         5 IDoV= 1 UseB2=F ITyADJ=14
 ICtDFT=  3500011 ScaDFX=  1.000000  1.000000  1.000000  1.000000
 FoFCou: FMM=F IPFlag=           0 FMFlag=      100000 FMFlg1=           0
         NFxFlg=           0 DoJE=T BraDBF=F KetDBF=T FulRan=T
         wScrn=  0.000000 ICntrl=       500 IOpCl=  0 I1Cent=   200000004 NGrid=           0
         NMat0=    1 NMatS0=      1 NMatT0=    0 NMatD0=    1 NMtDS0=    0 NMtDT0=    0
 Petite list used in FoFCou.
 Keep R1 ints in memory in symmetry-blocked form, NReq=2067981.
 Requested convergence on RMS density matrix=1.00D-08 within 128 cycles.
 Requested convergence on MAX density matrix=1.00D-06.
 Requested convergence on             energy=1.00D-06.
 No special actions if energy rises.
 Integral accuracy reduced to 1.0D-05 until final iterations.
 Initial convergence to 1.0D-05 achieved.  Increase integral accuracy.
 SCF Done:  E(RB3LYP) =  -189.730013754     A.U. after   11 cycles
            NFock= 11  Conv=0.15D-08     -V/T= 2.0082
 Calling FoFJK, ICntrl=      2127 FMM=F ISym2X=1 I1Cent= 0 IOpClX= 0 NMat=1 NMatS=1 NMatT=0.
 ***** Axes restored to original set *****
 -------------------------------------------------------------------
 Center     Atomic                   Forces (Hartrees/Bohr)
 Number     Number              X              Y              Z
 -------------------------------------------------------------------
      1        8          -0.000135614   -0.001074909    0.000000000
      2        1          -0.005663829    0.000422599    0.000000000
      3        1           0.000415364    0.000328518    0.000000000
      4        8          -0.000580274   -0.000345282    0.000000000
      5        6           0.005964354    0.000669074    0.000000000
 -------------------------------------------------------------------
 Cartesian Forces:  Max     0.005964354 RMS     0.002163160

 GradGradGradGradGradGradGradGradGradGradGradGradGradGradGradGradGradGrad
 Berny optimization.
 Using GEDIIS/GDIIS optimizer.
 FormGI is forming the generalized inverse of G from B-inverse, IUseBI=4.
 Internal  Forces:  Max     0.005999170 RMS     0.002715294
 Search for a local minimum.
 Step number   3 out of a maximum of   20
 All quantities printed in internal units (Hartrees-Bohrs-Radians)
 Mixed Optimization -- RFO/linear search
 Update second derivatives using D2CorX and points    1    2    3
 DE= -7.45D-04 DEPred=-5.55D-04 R= 1.34D+00
 TightC=F SS=  1.41D+00  RLast= 1.48D-01 DXNew= 8.4853D-01 4.4350D-01
 Trust test= 1.34D+00 RLast= 1.48D-01 DXMaxT set to 5.05D-01
 The second derivative matrix:
                          R1        R2        R3        R4        A1
           R1           0.55864
           R2           0.00437   0.55959
           R3          -0.00406  -0.00953   0.02150
           R4          -0.03923  -0.03840   0.03433   1.50431
           A1          -0.00279  -0.00156   0.01016   0.03746   0.16165
           A2          -0.00088  -0.00133  -0.00021   0.00618   0.00057
           A3          -0.00052  -0.00093  -0.00264   0.00505   0.00096
           A4           0.00000   0.00000   0.00000   0.00000   0.00000
           A5           0.00000   0.00000   0.00000   0.00000   0.00000
                          A2        A3        A4        A5
           A2           0.00253
           A3           0.00002   0.04294
           A4           0.00000   0.00000   0.00230
           A5           0.00000   0.00000   0.00000   0.04311
 ITU=  1  1  0
 Use linear search instead of GDIIS.
     Eigenvalues ---    0.00230   0.00249   0.01960   0.04311   0.04326
     Eigenvalues ---    0.16120   0.55471   0.56046   1.50942
 RFO step:  Lambda=-7.86589434D-04 EMin= 2.30000000D-03
 Quartic linear search produced a step of  1.54751.
 Iteration  1 RMS(Cart)=  0.07193150 RMS(Int)=  0.03181818
 Iteration  2 RMS(Cart)=  0.03450774 RMS(Int)=  0.00001488
 Iteration  3 RMS(Cart)=  0.00001674 RMS(Int)=  0.00000000
 Iteration  4 RMS(Cart)=  0.00000000 RMS(Int)=  0.00000000
 ClnCor:  largest displacement from symmetrization is 1.33D-09 for atom     4.
 Variable       Old X    -DE/DX   Delta X   Delta X   Delta X     New X
                                 (Linear)    (Quad)   (Total)
    R1        1.82567  -0.00030   0.00427  -0.00291   0.00136   1.82703
    R2        1.82221   0.00023   0.00840  -0.00308   0.00532   1.82754
    R3        3.68347   0.00539   0.17971   0.11577   0.29548   3.97895
    R4        2.14756   0.00600  -0.01572   0.01359  -0.00213   2.14543
    A1        1.82079  -0.00087  -0.02120  -0.00278  -0.02398   1.79680
    A2        3.04910   0.00048  -0.13781   0.14020   0.00239   3.05149
    A3        3.06543   0.00038   0.01625   0.01272   0.02898   3.09440
    A4        3.14159   0.00000   0.00000   0.00000   0.00000   3.14159
    A5        3.14159   0.00000   0.00000   0.00000   0.00000   3.14159
         Item               Value     Threshold  Converged?
 Maximum Force            0.005999     0.000450     NO 
 RMS     Force            0.002715     0.000300     NO 
 Maximum Displacement     0.174673     0.001800     NO 
 RMS     Displacement     0.106004     0.001200     NO 
 Predicted change in Energy=-7.313926D-04
 GradGradGradGradGradGradGradGradGradGradGradGradGradGradGradGradGradGrad

                          Input orientation:                          
 ---------------------------------------------------------------------
 Center     Atomic      Atomic             Coordinates (Angstroms)
 Number     Number       Type             X           Y           Z
 ---------------------------------------------------------------------
      1          8           0       -0.265657   -0.597578    0.000000
      2          1           0        0.700922   -0.619387    0.000000
      3          1           0       -0.461055    0.349566    0.000000
      4          8           0        2.801690   -0.477270    0.000000
      5          6           0        3.929537   -0.347294    0.000000
 ---------------------------------------------------------------------
                    Distance matrix (angstroms):
                    1          2          3          4          5
     1  O    0.000000
     2  H    0.966825   0.000000
     3  H    0.967090   1.512964   0.000000
     4  O    3.069706   2.105570   3.365882   0.000000
     5  C    4.202654   3.240061   4.445550   1.135312   0.000000
 Stoichiometry    CH2O2
 Framework group  CS[SG(CH2O2)]
 Deg. of freedom     7
 Full point group                 CS      NOp   2
 Largest Abelian subgroup         CS      NOp   2
 Largest concise Abelian subgroup C1      NOp   1
                         Standard orientation:                         
 ---------------------------------------------------------------------
 Center     Atomic      Atomic             Coordinates (Angstroms)
 Number     Number       Type             X           Y           Z
 ---------------------------------------------------------------------
      1          8           0       -0.186836   -2.099821    0.000000
      2          1           0       -0.187666   -1.132996    0.000000
      3          1           0        0.755846   -2.315724    0.000000
      4          8           0        0.000000    0.964194    0.000000
      5          6           0        0.154418    2.088955    0.000000
 ---------------------------------------------------------------------
 Rotational constants (GHZ):         544.5543048           3.4920182           3.4697679
 Standard basis: 6-31G(d,p) (6D, 7F)
 There are    41 symmetry adapted cartesian basis functions of A'  symmetry.
 There are    14 symmetry adapted cartesian basis functions of A"  symmetry.
 There are    41 symmetry adapted basis functions of A'  symmetry.
 There are    14 symmetry adapted basis functions of A"  symmetry.
    55 basis functions,    98 primitive gaussians,    55 cartesian basis functions
    12 alpha electrons       12 beta electrons
       nuclear repulsion energy        53.5182364244 Hartrees.
 NAtoms=    5 NActive=    5 NUniq=    5 SFac= 1.00D+00 NAtFMM=   60 NAOKFM=F Big=F
 Integral buffers will be    131072 words long.
 Raffenetti 2 integral format.
 Two-electron integral symmetry is turned on.
 One-electron integrals computed using PRISM.
 NBasis=    55 RedAO= T EigKep=  7.77D-03  NBF=    41    14
 NBsUse=    55 1.00D-06 EigRej= -1.00D+00 NBFU=    41    14
 Initial guess from the checkpoint file:  "Z:\Desktop\0620\CO(1)H(1)1_2.chk"
 B after Tr=     0.000000    0.000000    0.000000
         Rot=    0.999951    0.000000    0.000000   -0.009867 Ang=  -1.13 deg.
 Initial guess orbital symmetries:
       Occupied  (A') (A') (A') (A') (A') (A') (A') (A') (A") (A')
                 (A') (A")
       Virtual   (A') (A") (A') (A') (A') (A') (A") (A') (A') (A')
                 (A') (A") (A') (A') (A") (A') (A') (A') (A') (A")
                 (A') (A") (A') (A") (A') (A") (A") (A') (A') (A')
                 (A') (A') (A") (A') (A") (A") (A') (A') (A') (A')
                 (A') (A') (A')
 ExpMin= 1.61D-01 ExpMax= 5.48D+03 ExpMxC= 8.25D+02 IAcc=3 IRadAn=         5 AccDes= 0.00D+00
 Harris functional with IExCor=  402 and IRadAn=       5 diagonalized for initial guess.
 HarFok:  IExCor=  402 AccDes= 0.00D+00 IRadAn=         5 IDoV= 1 UseB2=F ITyADJ=14
 ICtDFT=  3500011 ScaDFX=  1.000000  1.000000  1.000000  1.000000
 FoFCou: FMM=F IPFlag=           0 FMFlag=      100000 FMFlg1=           0
         NFxFlg=           0 DoJE=T BraDBF=F KetDBF=T FulRan=T
         wScrn=  0.000000 ICntrl=       500 IOpCl=  0 I1Cent=   200000004 NGrid=           0
         NMat0=    1 NMatS0=      1 NMatT0=    0 NMatD0=    1 NMtDS0=    0 NMtDT0=    0
 Petite list used in FoFCou.
 Keep R1 ints in memory in symmetry-blocked form, NReq=2067981.
 Requested convergence on RMS density matrix=1.00D-08 within 128 cycles.
 Requested convergence on MAX density matrix=1.00D-06.
 Requested convergence on             energy=1.00D-06.
 No special actions if energy rises.
 Integral accuracy reduced to 1.0D-05 until final iterations.
 Initial convergence to 1.0D-05 achieved.  Increase integral accuracy.
 SCF Done:  E(RB3LYP) =  -189.731011615     A.U. after   11 cycles
            NFock= 11  Conv=0.31D-08     -V/T= 2.0083
 Calling FoFJK, ICntrl=      2127 FMM=F ISym2X=1 I1Cent= 0 IOpClX= 0 NMat=1 NMatS=1 NMatT=0.
 ***** Axes restored to original set *****
 -------------------------------------------------------------------
 Center     Atomic                   Forces (Hartrees/Bohr)
 Number     Number              X              Y              Z
 -------------------------------------------------------------------
      1        8           0.001881707    0.003183350    0.000000000
      2        1          -0.002829910   -0.001449451    0.000000000
      3        1          -0.000967554   -0.001926810    0.000000000
      4        8          -0.006415619   -0.000597486    0.000000000
      5        6           0.008331376    0.000790397    0.000000000
 -------------------------------------------------------------------
 Cartesian Forces:  Max     0.008331376 RMS     0.003054901

 GradGradGradGradGradGradGradGradGradGradGradGradGradGradGradGradGradGrad
 Berny optimization.
 Using GEDIIS/GDIIS optimizer.
 FormGI is forming the generalized inverse of G from B-inverse, IUseBI=4.
 Internal  Forces:  Max     0.008367086 RMS     0.003045391
 Search for a local minimum.
 Step number   4 out of a maximum of   20
 All quantities printed in internal units (Hartrees-Bohrs-Radians)
 Mixed Optimization -- RFO/linear search
 Update second derivatives using D2CorX and points    1    2    3    4
 DE= -9.98D-04 DEPred=-7.31D-04 R= 1.36D+00
 TightC=F SS=  1.41D+00  RLast= 2.98D-01 DXNew= 8.4853D-01 8.9379D-01
 Trust test= 1.36D+00 RLast= 2.98D-01 DXMaxT set to 8.49D-01
 The second derivative matrix:
                          R1        R2        R3        R4        A1
           R1           0.55810
           R2           0.00607   0.56571
           R3          -0.00115  -0.00450   0.01250
           R4          -0.01912  -0.03338   0.00439   1.19829
           A1          -0.00444  -0.00798   0.00312   0.04171   0.17230
           A2          -0.00014  -0.00041   0.00108  -0.00495  -0.00142
           A3          -0.00049  -0.00111  -0.00399   0.00380   0.00127
           A4           0.00000   0.00000   0.00000   0.00000   0.00000
           A5           0.00000   0.00000   0.00000   0.00000   0.00000
                          A2        A3        A4        A5
           A2           0.00260
           A3           0.00001   0.04285
           A4           0.00000   0.00000   0.00230
           A5           0.00000   0.00000   0.00000   0.04311
 ITU=  1  1  1  0
 Use linear search instead of GDIIS.
     Eigenvalues ---    0.00230   0.00244   0.01200   0.04311   0.04335
     Eigenvalues ---    0.17053   0.55474   0.56688   1.20241
 RFO step:  Lambda=-2.61546076D-04 EMin= 2.30000000D-03
 Quartic linear search produced a step of  0.83660.
 Iteration  1 RMS(Cart)=  0.07123940 RMS(Int)=  0.02820692
 Iteration  2 RMS(Cart)=  0.03021975 RMS(Int)=  0.00000925
 Iteration  3 RMS(Cart)=  0.00001049 RMS(Int)=  0.00000000
 Iteration  4 RMS(Cart)=  0.00000000 RMS(Int)=  0.00000000
 ClnCor:  largest displacement from symmetrization is 1.37D-10 for atom     4.
 Variable       Old X    -DE/DX   Delta X   Delta X   Delta X     New X
                                 (Linear)    (Quad)   (Total)
    R1        1.82703  -0.00089   0.00114  -0.00187  -0.00073   1.82630
    R2        1.82754  -0.00169   0.00445  -0.00468  -0.00023   1.82731
    R3        3.97895   0.00192   0.24720   0.03780   0.28500   4.26395
    R4        2.14543   0.00837  -0.00179   0.00714   0.00536   2.15079
    A1        1.79680   0.00244  -0.02006   0.02630   0.00624   1.80304
    A2        3.05149   0.00011   0.00200  -0.05448  -0.05248   2.99900
    A3        3.09440   0.00036   0.02424   0.01337   0.03761   3.13202
    A4        3.14159   0.00000   0.00000   0.00000   0.00000   3.14159
    A5        3.14159   0.00000   0.00000   0.00000   0.00000   3.14159
         Item               Value     Threshold  Converged?
 Maximum Force            0.008367     0.000450     NO 
 RMS     Force            0.003045     0.000300     NO 
 Maximum Displacement     0.163396     0.001800     NO 
 RMS     Displacement     0.100300     0.001200     NO 
 Predicted change in Energy=-9.697207D-05
 GradGradGradGradGradGradGradGradGradGradGradGradGradGradGradGradGradGrad

                          Input orientation:                          
 ---------------------------------------------------------------------
 Center     Atomic      Atomic             Coordinates (Angstroms)
 Number     Number       Type             X           Y           Z
 ---------------------------------------------------------------------
      1          8           0       -0.330414   -0.591627    0.000000
      2          1           0        0.634356   -0.648386    0.000000
      3          1           0       -0.497324    0.360827    0.000000
      4          8           0        2.882816   -0.459463    0.000000
      5          6           0        4.016003   -0.353314    0.000000
 ---------------------------------------------------------------------
                    Distance matrix (angstroms):
                    1          2          3          4          5
     1  O    0.000000
     2  H    0.966437   0.000000
     3  H    0.966969   1.516315   0.000000
     4  O    3.215947   2.256384   3.478250   0.000000
     5  C    4.352945   3.394496   4.569476   1.138147   0.000000
 Stoichiometry    CH2O2
 Framework group  CS[SG(CH2O2)]
 Deg. of freedom     7
 Full point group                 CS      NOp   2
 Largest Abelian subgroup         CS      NOp   2
 Largest concise Abelian subgroup C1      NOp   1
                         Standard orientation:                         
 ---------------------------------------------------------------------
 Center     Atomic      Atomic             Coordinates (Angstroms)
 Number     Number       Type             X           Y           Z
 ---------------------------------------------------------------------
      1          8           0       -0.159785   -2.189632    0.000000
      2          1           0       -0.208247   -1.224410    0.000000
      3          1           0        0.791199   -2.364725    0.000000
      4          8           0        0.000000    1.022343    0.000000
      5          6           0        0.115888    2.154575    0.000000
 ---------------------------------------------------------------------
 Rotational constants (GHZ):         549.2634132           3.2334284           3.2145052
 Standard basis: 6-31G(d,p) (6D, 7F)
 There are    41 symmetry adapted cartesian basis functions of A'  symmetry.
 There are    14 symmetry adapted cartesian basis functions of A"  symmetry.
 There are    41 symmetry adapted basis functions of A'  symmetry.
 There are    14 symmetry adapted basis functions of A"  symmetry.
    55 basis functions,    98 primitive gaussians,    55 cartesian basis functions
    12 alpha electrons       12 beta electrons
       nuclear repulsion energy        52.5146874157 Hartrees.
 NAtoms=    5 NActive=    5 NUniq=    5 SFac= 1.00D+00 NAtFMM=   60 NAOKFM=F Big=F
 Integral buffers will be    131072 words long.
 Raffenetti 2 integral format.
 Two-electron integral symmetry is turned on.
 One-electron integrals computed using PRISM.
 NBasis=    55 RedAO= T EigKep=  7.83D-03  NBF=    41    14
 NBsUse=    55 1.00D-06 EigRej= -1.00D+00 NBFU=    41    14
 Initial guess from the checkpoint file:  "Z:\Desktop\0620\CO(1)H(1)1_2.chk"
 B after Tr=     0.000000    0.000000    0.000000
         Rot=    0.999973    0.000000    0.000000   -0.007363 Ang=  -0.84 deg.
 Initial guess orbital symmetries:
       Occupied  (A') (A') (A') (A') (A') (A') (A') (A') (A") (A')
                 (A') (A")
       Virtual   (A') (A") (A') (A') (A') (A') (A") (A') (A') (A')
                 (A') (A') (A") (A') (A") (A') (A') (A') (A') (A")
                 (A') (A") (A') (A") (A') (A") (A") (A') (A') (A')
                 (A') (A') (A") (A') (A") (A") (A') (A') (A') (A')
                 (A') (A') (A')
 ExpMin= 1.61D-01 ExpMax= 5.48D+03 ExpMxC= 8.25D+02 IAcc=3 IRadAn=         5 AccDes= 0.00D+00
 Harris functional with IExCor=  402 and IRadAn=       5 diagonalized for initial guess.
 HarFok:  IExCor=  402 AccDes= 0.00D+00 IRadAn=         5 IDoV= 1 UseB2=F ITyADJ=14
 ICtDFT=  3500011 ScaDFX=  1.000000  1.000000  1.000000  1.000000
 FoFCou: FMM=F IPFlag=           0 FMFlag=      100000 FMFlg1=           0
         NFxFlg=           0 DoJE=T BraDBF=F KetDBF=T FulRan=T
         wScrn=  0.000000 ICntrl=       500 IOpCl=  0 I1Cent=   200000004 NGrid=           0
         NMat0=    1 NMatS0=      1 NMatT0=    0 NMatD0=    1 NMtDS0=    0 NMtDT0=    0
 Petite list used in FoFCou.
 Keep R1 ints in memory in symmetry-blocked form, NReq=2067981.
 Requested convergence on RMS density matrix=1.00D-08 within 128 cycles.
 Requested convergence on MAX density matrix=1.00D-06.
 Requested convergence on             energy=1.00D-06.
 No special actions if energy rises.
 Integral accuracy reduced to 1.0D-05 until final iterations.
 Initial convergence to 1.0D-05 achieved.  Increase integral accuracy.
 SCF Done:  E(RB3LYP) =  -189.731339506     A.U. after   11 cycles
            NFock= 11  Conv=0.15D-08     -V/T= 2.0084
 Calling FoFJK, ICntrl=      2127 FMM=F ISym2X=1 I1Cent= 0 IOpClX= 0 NMat=1 NMatS=1 NMatT=0.
 ***** Axes restored to original set *****
 -------------------------------------------------------------------
 Center     Atomic                   Forces (Hartrees/Bohr)
 Number     Number              X              Y              Z
 -------------------------------------------------------------------
      1        8           0.001278539    0.002308394    0.000000000
      2        1          -0.001220893   -0.000573872    0.000000000
      3        1          -0.000316287   -0.001795582    0.000000000
      4        8          -0.001111393    0.000056085    0.000000000
      5        6           0.001370034    0.000004975    0.000000000
 -------------------------------------------------------------------
 Cartesian Forces:  Max     0.002308394 RMS     0.001007398

 GradGradGradGradGradGradGradGradGradGradGradGradGradGradGradGradGradGrad
 Berny optimization.
 Using GEDIIS/GDIIS optimizer.
 FormGI is forming the generalized inverse of G from B-inverse, IUseBI=4.
 Internal  Forces:  Max     0.001714013 RMS     0.000888416
 Search for a local minimum.
 Step number   5 out of a maximum of   20
 All quantities printed in internal units (Hartrees-Bohrs-Radians)
 Mixed Optimization -- En-DIIS/RFO-DIIS
 Update second derivatives using D2CorX and points    3    4    5
 DE= -3.28D-04 DEPred=-9.70D-05 R= 3.38D+00
 TightC=F SS=  1.41D+00  RLast= 2.92D-01 DXNew= 1.4270D+00 8.7701D-01
 Trust test= 3.38D+00 RLast= 2.92D-01 DXMaxT set to 8.77D-01
 The second derivative matrix:
                          R1        R2        R3        R4        A1
           R1           0.55797
           R2           0.00602   0.56600
           R3           0.00196   0.00119   0.00668
           R4          -0.01286  -0.02205  -0.00042   1.21478
           A1          -0.00379  -0.00712  -0.00036   0.03949   0.17229
           A2           0.00001  -0.00012   0.00067  -0.00566  -0.00169
           A3          -0.00025  -0.00073  -0.00535   0.00151   0.00085
           A4           0.00000   0.00000   0.00000   0.00000   0.00000
           A5           0.00000   0.00000   0.00000   0.00000   0.00000
                          A2        A3        A4        A5
           A2           0.00258
           A3          -0.00007   0.04269
           A4           0.00000   0.00000   0.00230
           A5           0.00000   0.00000   0.00000   0.04311
 ITU=  1  1  1  1  0
 Use linear search instead of GDIIS.
     Eigenvalues ---    0.00230   0.00241   0.00602   0.04311   0.04346
     Eigenvalues ---    0.17069   0.55475   0.56833   1.21733
 RFO step:  Lambda=-1.35322571D-05 EMin= 2.30000000D-03
 Quartic linear search produced a step of  0.29703.
 Iteration  1 RMS(Cart)=  0.03614659 RMS(Int)=  0.00012939
 Iteration  2 RMS(Cart)=  0.00012517 RMS(Int)=  0.00000000
 Iteration  3 RMS(Cart)=  0.00000000 RMS(Int)=  0.00000000
 ClnCor:  largest displacement from symmetrization is 1.15D-13 for atom     4.
 Variable       Old X    -DE/DX   Delta X   Delta X   Delta X     New X
                                 (Linear)    (Quad)   (Total)
    R1        1.82630  -0.00093  -0.00022  -0.00164  -0.00186   1.82444
    R2        1.82731  -0.00171  -0.00007  -0.00298  -0.00305   1.82426
    R3        4.26395   0.00026   0.08465  -0.00107   0.08359   4.34754
    R4        2.15079   0.00136   0.00159  -0.00070   0.00089   2.15167
    A1        1.80304   0.00114   0.00185   0.00456   0.00642   1.80946
    A2        2.99900   0.00010  -0.01559   0.02366   0.00807   3.00707
    A3        3.13202   0.00026   0.01117   0.00591   0.01708   3.14910
    A4        3.14159   0.00000   0.00000   0.00000   0.00000   3.14159
    A5        3.14159   0.00000   0.00000   0.00000   0.00000   3.14159
         Item               Value     Threshold  Converged?
 Maximum Force            0.001714     0.000450     NO 
 RMS     Force            0.000888     0.000300     NO 
 Maximum Displacement     0.057810     0.001800     NO 
 RMS     Displacement     0.036072     0.001200     NO 
 Predicted change in Energy=-1.291864D-05
 GradGradGradGradGradGradGradGradGradGradGradGradGradGradGradGradGradGrad

                          Input orientation:                          
 ---------------------------------------------------------------------
 Center     Atomic      Atomic             Coordinates (Angstroms)
 Number     Number       Type             X           Y           Z
 ---------------------------------------------------------------------
      1          8           0       -0.345650   -0.591726    0.000000
      2          1           0        0.618523   -0.641450    0.000000
      3          1           0       -0.525251    0.356777    0.000000
      4          8           0        2.911220   -0.450721    0.000000
      5          6           0        4.046594   -0.364844    0.000000
 ---------------------------------------------------------------------
                    Distance matrix (angstroms):
                    1          2          3          4          5
     1  O    0.000000
     2  H    0.965455   0.000000
     3  H    0.965358   1.518116   0.000000
     4  O    3.259921   2.300617   3.530069   0.000000
     5  C    4.398100   3.439212   4.628445   1.138617   0.000000
 Stoichiometry    CH2O2
 Framework group  CS[SG(CH2O2)]
 Deg. of freedom     7
 Full point group                 CS      NOp   2
 Largest Abelian subgroup         CS      NOp   2
 Largest concise Abelian subgroup C1      NOp   1
                         Standard orientation:                         
 ---------------------------------------------------------------------
 Center     Atomic      Atomic             Coordinates (Angstroms)
 Number     Number       Type             X           Y           Z
 ---------------------------------------------------------------------
      1          8           0       -0.141526   -2.216352    0.000000
      2          1           0       -0.191095   -1.252171    0.000000
      3          1           0        0.806949   -2.396105    0.000000
      4          8           0        0.000000    1.040495    0.000000
      5          6           0        0.086059    2.175856    0.000000
 ---------------------------------------------------------------------
 Rotational constants (GHZ):         563.7242303           3.1590597           3.1414552
 Standard basis: 6-31G(d,p) (6D, 7F)
 There are    41 symmetry adapted cartesian basis functions of A'  symmetry.
 There are    14 symmetry adapted cartesian basis functions of A"  symmetry.
 There are    41 symmetry adapted basis functions of A'  symmetry.
 There are    14 symmetry adapted basis functions of A"  symmetry.
    55 basis functions,    98 primitive gaussians,    55 cartesian basis functions
    12 alpha electrons       12 beta electrons
       nuclear repulsion energy        52.2399069236 Hartrees.
 NAtoms=    5 NActive=    5 NUniq=    5 SFac= 1.00D+00 NAtFMM=   60 NAOKFM=F Big=F
 Integral buffers will be    131072 words long.
 Raffenetti 2 integral format.
 Two-electron integral symmetry is turned on.
 One-electron integrals computed using PRISM.
 NBasis=    55 RedAO= T EigKep=  7.84D-03  NBF=    41    14
 NBsUse=    55 1.00D-06 EigRej= -1.00D+00 NBFU=    41    14
 Initial guess from the checkpoint file:  "Z:\Desktop\0620\CO(1)H(1)1_2.chk"
 B after Tr=     0.000000    0.000000    0.000000
         Rot=    0.999989    0.000000    0.000000   -0.004748 Ang=  -0.54 deg.
 Initial guess orbital symmetries:
       Occupied  (A') (A') (A') (A') (A') (A') (A') (A') (A") (A')
                 (A') (A")
       Virtual   (A') (A") (A') (A') (A') (A') (A") (A') (A') (A')
                 (A') (A') (A") (A') (A") (A') (A') (A') (A') (A")
                 (A') (A") (A') (A") (A') (A") (A") (A') (A') (A')
                 (A') (A') (A") (A') (A") (A") (A') (A') (A') (A')
                 (A') (A') (A')
 ExpMin= 1.61D-01 ExpMax= 5.48D+03 ExpMxC= 8.25D+02 IAcc=3 IRadAn=         5 AccDes= 0.00D+00
 Harris functional with IExCor=  402 and IRadAn=       5 diagonalized for initial guess.
 HarFok:  IExCor=  402 AccDes= 0.00D+00 IRadAn=         5 IDoV= 1 UseB2=F ITyADJ=14
 ICtDFT=  3500011 ScaDFX=  1.000000  1.000000  1.000000  1.000000
 FoFCou: FMM=F IPFlag=           0 FMFlag=      100000 FMFlg1=           0
         NFxFlg=           0 DoJE=T BraDBF=F KetDBF=T FulRan=T
         wScrn=  0.000000 ICntrl=       500 IOpCl=  0 I1Cent=   200000004 NGrid=           0
         NMat0=    1 NMatS0=      1 NMatT0=    0 NMatD0=    1 NMtDS0=    0 NMtDT0=    0
 Petite list used in FoFCou.
 Keep R1 ints in memory in symmetry-blocked form, NReq=2067981.
 Requested convergence on RMS density matrix=1.00D-08 within 128 cycles.
 Requested convergence on MAX density matrix=1.00D-06.
 Requested convergence on             energy=1.00D-06.
 No special actions if energy rises.
 Integral accuracy reduced to 1.0D-05 until final iterations.
 Initial convergence to 1.0D-05 achieved.  Increase integral accuracy.
 SCF Done:  E(RB3LYP) =  -189.731362000     A.U. after   10 cycles
            NFock= 10  Conv=0.93D-09     -V/T= 2.0084
 Calling FoFJK, ICntrl=      2127 FMM=F ISym2X=1 I1Cent= 0 IOpClX= 0 NMat=1 NMatS=1 NMatT=0.
 ***** Axes restored to original set *****
 -------------------------------------------------------------------
 Center     Atomic                   Forces (Hartrees/Bohr)
 Number     Number              X              Y              Z
 -------------------------------------------------------------------
      1        8           0.000239330    0.000377775    0.000000000
      2        1          -0.000139582   -0.000103338    0.000000000
      3        1          -0.000049166   -0.000312510    0.000000000
      4        8          -0.000252050    0.000134738    0.000000000
      5        6           0.000201468   -0.000096664    0.000000000
 -------------------------------------------------------------------
 Cartesian Forces:  Max     0.000377775 RMS     0.000175471

 GradGradGradGradGradGradGradGradGradGradGradGradGradGradGradGradGradGrad
 Berny optimization.
 Using GEDIIS/GDIIS optimizer.
 FormGI is forming the generalized inverse of G from B-inverse, IUseBI=4.
 Internal  Forces:  Max     0.000297881 RMS     0.000170593
 Search for a local minimum.
 Step number   6 out of a maximum of   20
 All quantities printed in internal units (Hartrees-Bohrs-Radians)
 Mixed Optimization -- En-DIIS/RFO-DIIS
 Swapping is turned off.
 Update second derivatives using D2CorX and points    4    5    6
 DE= -2.25D-05 DEPred=-1.29D-05 R= 1.74D+00
 TightC=F SS=  1.41D+00  RLast= 8.60D-02 DXNew= 1.4749D+00 2.5804D-01
 Trust test= 1.74D+00 RLast= 8.60D-02 DXMaxT set to 8.77D-01
 The second derivative matrix:
                          R1        R2        R3        R4        A1
           R1           0.55732
           R2           0.00554   0.56652
           R3           0.00339   0.00343   0.00556
           R4          -0.01244  -0.02290  -0.00151   1.22162
           A1          -0.00334  -0.00730  -0.00179   0.04095   0.17249
           A2           0.00019   0.00016   0.00051  -0.00595  -0.00189
           A3           0.00326   0.00576  -0.00755  -0.00562  -0.00384
           A4           0.00000   0.00000   0.00000   0.00000   0.00000
           A5           0.00000   0.00000   0.00000   0.00000   0.00000
                          A2        A3        A4        A5
           A2           0.00256
           A3          -0.00030   0.04161
           A4           0.00000   0.00000   0.00230
           A5           0.00000   0.00000   0.00000   0.04311
 ITU=  1  1  1  1  1  0
     Eigenvalues ---    0.00230   0.00240   0.00404   0.04297   0.04311
     Eigenvalues ---    0.17089   0.55472   0.56830   1.22434
 En-DIIS/RFO-DIIS/Sim-DIIS IScMMF=       -3 using points:     6    5
 RFO step:  Lambda=-3.49204706D-06.
 DidBck=F Rises=F RFO-DIIS coefs:    1.02329   -0.02329
 Iteration  1 RMS(Cart)=  0.01742506 RMS(Int)=  0.00018544
 Iteration  2 RMS(Cart)=  0.00021601 RMS(Int)=  0.00000000
 Iteration  3 RMS(Cart)=  0.00000000 RMS(Int)=  0.00000000
 ClnCor:  largest displacement from symmetrization is 1.66D-13 for atom     2.
 Variable       Old X    -DE/DX   Delta X   Delta X   Delta X     New X
                                 (Linear)    (Quad)   (Total)
    R1        1.82444  -0.00019  -0.00004  -0.00030  -0.00035   1.82410
    R2        1.82426  -0.00030  -0.00007  -0.00048  -0.00055   1.82371
    R3        4.34754  -0.00005   0.00195  -0.00366  -0.00171   4.34583
    R4        2.15167   0.00019   0.00002   0.00022   0.00024   2.15192
    A1        1.80946   0.00019   0.00015   0.00128   0.00143   1.81088
    A2        3.00707   0.00006   0.00019   0.02490   0.02508   3.03215
    A3        3.14910   0.00024   0.00040   0.00551   0.00591   3.15501
    A4        3.14159   0.00000   0.00000   0.00000   0.00000   3.14159
    A5        3.14159   0.00000   0.00000   0.00000   0.00000   3.14159
         Item               Value     Threshold  Converged?
 Maximum Force            0.000298     0.000450     YES
 RMS     Force            0.000171     0.000300     YES
 Maximum Displacement     0.031141     0.001800     NO 
 RMS     Displacement     0.017371     0.001200     NO 
 Predicted change in Energy=-1.746408D-06
 GradGradGradGradGradGradGradGradGradGradGradGradGradGradGradGradGradGrad

                          Input orientation:                          
 ---------------------------------------------------------------------
 Center     Atomic      Atomic             Coordinates (Angstroms)
 Number     Number       Type             X           Y           Z
 ---------------------------------------------------------------------
      1          8           0       -0.342299   -0.594553    0.000000
      2          1           0        0.622480   -0.625377    0.000000
      3          1           0       -0.541730    0.349682    0.000000
      4          8           0        2.915288   -0.447322    0.000000
      5          6           0        4.051697   -0.374393    0.000000
 ---------------------------------------------------------------------
                    Distance matrix (angstroms):
                    1          2          3          4          5
     1  O    0.000000
     2  H    0.965271   0.000000
     3  H    0.965066   1.518592   0.000000
     4  O    3.260912   2.299712   3.547702   0.000000
     5  C    4.399508   3.438390   4.650146   1.138746   0.000000
 Stoichiometry    CH2O2
 Framework group  CS[SG(CH2O2)]
 Deg. of freedom     7
 Full point group                 CS      NOp   2
 Largest Abelian subgroup         CS      NOp   2
 Largest concise Abelian subgroup C1      NOp   1
                         Standard orientation:                         
 ---------------------------------------------------------------------
 Center     Atomic      Atomic             Coordinates (Angstroms)
 Number     Number       Type             X           Y           Z
 ---------------------------------------------------------------------
      1          8           0       -0.131415   -2.216915    0.000000
      2          1           0       -0.166922   -1.252297    0.000000
      3          1           0        0.813777   -2.411760    0.000000
      4          8           0        0.000000    1.041349    0.000000
      5          6           0        0.067411    2.178098    0.000000
 ---------------------------------------------------------------------
 Rotational constants (GHZ):         575.4568351           3.1551047           3.1379003
 Standard basis: 6-31G(d,p) (6D, 7F)
 There are    41 symmetry adapted cartesian basis functions of A'  symmetry.
 There are    14 symmetry adapted cartesian basis functions of A"  symmetry.
 There are    41 symmetry adapted basis functions of A'  symmetry.
 There are    14 symmetry adapted basis functions of A"  symmetry.
    55 basis functions,    98 primitive gaussians,    55 cartesian basis functions
    12 alpha electrons       12 beta electrons
       nuclear repulsion energy        52.2262061303 Hartrees.
 NAtoms=    5 NActive=    5 NUniq=    5 SFac= 1.00D+00 NAtFMM=   60 NAOKFM=F Big=F
 Integral buffers will be    131072 words long.
 Raffenetti 2 integral format.
 Two-electron integral symmetry is turned on.
 One-electron integrals computed using PRISM.
 NBasis=    55 RedAO= T EigKep=  7.84D-03  NBF=    41    14
 NBsUse=    55 1.00D-06 EigRej= -1.00D+00 NBFU=    41    14
 Initial guess from the checkpoint file:  "Z:\Desktop\0620\CO(1)H(1)1_2.chk"
 B after Tr=     0.000000    0.000000    0.000000
         Rot=    0.999996    0.000000    0.000000   -0.002709 Ang=  -0.31 deg.
 Initial guess orbital symmetries:
       Occupied  (A') (A') (A') (A') (A') (A') (A') (A') (A") (A')
                 (A') (A")
       Virtual   (A') (A") (A') (A') (A') (A') (A") (A') (A') (A')
                 (A') (A') (A") (A') (A") (A') (A') (A') (A') (A")
                 (A') (A") (A') (A") (A') (A") (A") (A') (A') (A')
                 (A') (A') (A") (A') (A") (A") (A') (A') (A') (A')
                 (A') (A') (A')
 ExpMin= 1.61D-01 ExpMax= 5.48D+03 ExpMxC= 8.25D+02 IAcc=3 IRadAn=         5 AccDes= 0.00D+00
 Harris functional with IExCor=  402 and IRadAn=       5 diagonalized for initial guess.
 HarFok:  IExCor=  402 AccDes= 0.00D+00 IRadAn=         5 IDoV= 1 UseB2=F ITyADJ=14
 ICtDFT=  3500011 ScaDFX=  1.000000  1.000000  1.000000  1.000000
 FoFCou: FMM=F IPFlag=           0 FMFlag=      100000 FMFlg1=           0
         NFxFlg=           0 DoJE=T BraDBF=F KetDBF=T FulRan=T
         wScrn=  0.000000 ICntrl=       500 IOpCl=  0 I1Cent=   200000004 NGrid=           0
         NMat0=    1 NMatS0=      1 NMatT0=    0 NMatD0=    1 NMtDS0=    0 NMtDT0=    0
 Petite list used in FoFCou.
 Keep R1 ints in memory in symmetry-blocked form, NReq=2067981.
 Requested convergence on RMS density matrix=1.00D-08 within 128 cycles.
 Requested convergence on MAX density matrix=1.00D-06.
 Requested convergence on             energy=1.00D-06.
 No special actions if energy rises.
 Integral accuracy reduced to 1.0D-05 until final iterations.
 Initial convergence to 1.0D-05 achieved.  Increase integral accuracy.
 SCF Done:  E(RB3LYP) =  -189.731364676     A.U. after   10 cycles
            NFock= 10  Conv=0.30D-08     -V/T= 2.0084
 Calling FoFJK, ICntrl=      2127 FMM=F ISym2X=1 I1Cent= 0 IOpClX= 0 NMat=1 NMatS=1 NMatT=0.
 ***** Axes restored to original set *****
 -------------------------------------------------------------------
 Center     Atomic                   Forces (Hartrees/Bohr)
 Number     Number              X              Y              Z
 -------------------------------------------------------------------
      1        8           0.000031968    0.000048972    0.000000000
      2        1           0.000021677   -0.000049487    0.000000000
      3        1           0.000002022   -0.000048748    0.000000000
      4        8           0.000066703    0.000170707    0.000000000
      5        6          -0.000122369   -0.000121444    0.000000000
 -------------------------------------------------------------------
 Cartesian Forces:  Max     0.000170707 RMS     0.000069298

 GradGradGradGradGradGradGradGradGradGradGradGradGradGradGradGradGradGrad
 Berny optimization.
 Using GEDIIS/GDIIS optimizer.
 FormGI is forming the generalized inverse of G from B-inverse, IUseBI=4.
 Internal  Forces:  Max     0.000244046 RMS     0.000095996
 Search for a local minimum.
 Step number   7 out of a maximum of   20
 All quantities printed in internal units (Hartrees-Bohrs-Radians)
 Mixed Optimization -- En-DIIS/RFO-DIIS
 Swapping is turned off.
 Update second derivatives using D2CorX and points    4    5    6    7
 DE= -2.68D-06 DEPred=-1.75D-06 R= 1.53D+00
 TightC=F SS=  1.41D+00  RLast= 2.59D-02 DXNew= 1.4749D+00 7.7628D-02
 Trust test= 1.53D+00 RLast= 2.59D-02 DXMaxT set to 8.77D-01
 The second derivative matrix:
                          R1        R2        R3        R4        A1
           R1           0.56421
           R2           0.01806   0.58923
           R3          -0.00041  -0.00277   0.00543
           R4          -0.03935  -0.06834   0.00385   1.26774
           A1          -0.01346  -0.02522   0.00234   0.07046   0.18565
           A2          -0.00125  -0.00239   0.00154  -0.00007   0.00017
           A3           0.01912   0.03198  -0.00522  -0.02188  -0.02055
           A4           0.00000   0.00000   0.00000   0.00000   0.00000
           A5           0.00000   0.00000   0.00000   0.00000   0.00000
                          A2        A3        A4        A5
           A2           0.00286
           A3          -0.00440   0.02646
           A4           0.00000   0.00000   0.00230
           A5           0.00000   0.00000   0.00000   0.04311
 ITU=  1  1  1  1  1  1  0
     Eigenvalues ---    0.00185   0.00230   0.00416   0.02402   0.04311
     Eigenvalues ---    0.18162   0.55475   0.59275   1.28243
 En-DIIS/RFO-DIIS/Sim-DIIS IScMMF=       -3 using points:     7    6    5
 RFO step:  Lambda=-4.57146109D-06.
 DidBck=F Rises=F RFO-DIIS coefs:    2.27788   -1.26322   -0.01466
 Iteration  1 RMS(Cart)=  0.02310537 RMS(Int)=  0.00033060
 Iteration  2 RMS(Cart)=  0.00038409 RMS(Int)=  0.00000000
 Iteration  3 RMS(Cart)=  0.00000000 RMS(Int)=  0.00000000
 ClnCor:  largest displacement from symmetrization is 2.24D-15 for atom     3.
 Variable       Old X    -DE/DX   Delta X   Delta X   Delta X     New X
                                 (Linear)    (Quad)   (Total)
    R1        1.82410  -0.00003  -0.00047   0.00000  -0.00047   1.82362
    R2        1.82371  -0.00005  -0.00075  -0.00001  -0.00076   1.82295
    R3        4.34583  -0.00005  -0.00096  -0.00270  -0.00366   4.34216
    R4        2.15192  -0.00013   0.00032  -0.00028   0.00004   2.15196
    A1        1.81088   0.00001   0.00192  -0.00019   0.00173   1.81262
    A2        3.03215   0.00001   0.03217  -0.00209   0.03008   3.06223
    A3        3.15501   0.00024   0.00780   0.00815   0.01595   3.17096
    A4        3.14159   0.00000   0.00000   0.00000   0.00000   3.14159
    A5        3.14159   0.00000   0.00000   0.00000   0.00000   3.14159
         Item               Value     Threshold  Converged?
 Maximum Force            0.000244     0.000450     YES
 RMS     Force            0.000096     0.000300     YES
 Maximum Displacement     0.038429     0.001800     NO 
 RMS     Displacement     0.023028     0.001200     NO 
 Predicted change in Energy=-2.285793D-06
 GradGradGradGradGradGradGradGradGradGradGradGradGradGradGradGradGradGrad

                          Input orientation:                          
 ---------------------------------------------------------------------
 Center     Atomic      Atomic             Coordinates (Angstroms)
 Number     Number       Type             X           Y           Z
 ---------------------------------------------------------------------
      1          8           0       -0.337243   -0.598382    0.000000
      2          1           0        0.627754   -0.605041    0.000000
      3          1           0       -0.561782    0.339787    0.000000
      4          8           0        2.919498   -0.438692    0.000000
      5          6           0        4.057209   -0.389635    0.000000
 ---------------------------------------------------------------------
                    Distance matrix (angstroms):
                    1          2          3          4          5
     1  O    0.000000
     2  H    0.965020   0.000000
     3  H    0.964665   1.519111   0.000000
     4  O    3.260654   2.297773   3.567260   0.000000
     5  C    4.399407   3.436213   4.676231   1.138768   0.000000
 Stoichiometry    CH2O2
 Framework group  CS[SG(CH2O2)]
 Deg. of freedom     7
 Full point group                 CS      NOp   2
 Largest Abelian subgroup         CS      NOp   2
 Largest concise Abelian subgroup C1      NOp   1
                         Standard orientation:                         
 ---------------------------------------------------------------------
 Center     Atomic      Atomic             Coordinates (Angstroms)
 Number     Number       Type             X           Y           Z
 ---------------------------------------------------------------------
      1          8           0       -0.111343   -2.216942    0.000000
      2          1           0       -0.132322   -1.252150    0.000000
      3          1           0        0.830055   -2.427534    0.000000
      4          8           0        0.000000    1.041810    0.000000
      5          6           0        0.032168    2.180124    0.000000
 ---------------------------------------------------------------------
 Rotational constants (GHZ):         589.9935488           3.1528604           3.1361014
 Standard basis: 6-31G(d,p) (6D, 7F)
 There are    41 symmetry adapted cartesian basis functions of A'  symmetry.
 There are    14 symmetry adapted cartesian basis functions of A"  symmetry.
 There are    41 symmetry adapted basis functions of A'  symmetry.
 There are    14 symmetry adapted basis functions of A"  symmetry.
    55 basis functions,    98 primitive gaussians,    55 cartesian basis functions
    12 alpha electrons       12 beta electrons
       nuclear repulsion energy        52.2213642430 Hartrees.
 NAtoms=    5 NActive=    5 NUniq=    5 SFac= 1.00D+00 NAtFMM=   60 NAOKFM=F Big=F
 Integral buffers will be    131072 words long.
 Raffenetti 2 integral format.
 Two-electron integral symmetry is turned on.
 One-electron integrals computed using PRISM.
 NBasis=    55 RedAO= T EigKep=  7.84D-03  NBF=    41    14
 NBsUse=    55 1.00D-06 EigRej= -1.00D+00 NBFU=    41    14
 Initial guess from the checkpoint file:  "Z:\Desktop\0620\CO(1)H(1)1_2.chk"
 B after Tr=     0.000000    0.000000    0.000000
         Rot=    0.999986    0.000000    0.000000   -0.005234 Ang=  -0.60 deg.
 Initial guess orbital symmetries:
       Occupied  (A') (A') (A') (A') (A') (A') (A') (A') (A") (A')
                 (A') (A")
       Virtual   (A') (A") (A') (A') (A') (A') (A") (A') (A') (A')
                 (A') (A') (A") (A') (A") (A') (A') (A') (A') (A")
                 (A') (A") (A') (A") (A') (A") (A") (A') (A') (A')
                 (A') (A') (A") (A') (A") (A") (A') (A') (A') (A')
                 (A') (A') (A')
 ExpMin= 1.61D-01 ExpMax= 5.48D+03 ExpMxC= 8.25D+02 IAcc=3 IRadAn=         5 AccDes= 0.00D+00
 Harris functional with IExCor=  402 and IRadAn=       5 diagonalized for initial guess.
 HarFok:  IExCor=  402 AccDes= 0.00D+00 IRadAn=         5 IDoV= 1 UseB2=F ITyADJ=14
 ICtDFT=  3500011 ScaDFX=  1.000000  1.000000  1.000000  1.000000
 FoFCou: FMM=F IPFlag=           0 FMFlag=      100000 FMFlg1=           0
         NFxFlg=           0 DoJE=T BraDBF=F KetDBF=T FulRan=T
         wScrn=  0.000000 ICntrl=       500 IOpCl=  0 I1Cent=   200000004 NGrid=           0
         NMat0=    1 NMatS0=      1 NMatT0=    0 NMatD0=    1 NMtDS0=    0 NMtDT0=    0
 Petite list used in FoFCou.
 Keep R1 ints in memory in symmetry-blocked form, NReq=2067981.
 Requested convergence on RMS density matrix=1.00D-08 within 128 cycles.
 Requested convergence on MAX density matrix=1.00D-06.
 Requested convergence on             energy=1.00D-06.
 No special actions if energy rises.
 Integral accuracy reduced to 1.0D-05 until final iterations.
[...]
 DIIS inversion failure, remove point   6.
 DIIS inversion failure, remove point   5.
 RFO-DIIS uses    4 points instead of    8
 DidBck=F Rises=F RFO-DIIS coefs:    1.92345   -1.84196    1.41735   -0.49885    0.00000
                  RFO-DIIS coefs:    0.00000    0.00000    0.00000
 Iteration  1 RMS(Cart)=  0.01118778 RMS(Int)=  0.00008839
 Iteration  2 RMS(Cart)=  0.00010725 RMS(Int)=  0.00000000
 Iteration  3 RMS(Cart)=  0.00000000 RMS(Int)=  0.00000000
 ClnCor:  largest displacement from symmetrization is 2.51D-12 for atom     2.
 Variable       Old X    -DE/DX   Delta X   Delta X   Delta X     New X
                                 (Linear)    (Quad)   (Total)
    R1        1.82380   0.00013   0.00032  -0.00004   0.00028   1.82409
    R2        1.82319   0.00020   0.00049  -0.00006   0.00043   1.82362
    R3        4.31388   0.00003   0.01011   0.00000   0.01011   4.32399
    R4        2.15195  -0.00004   0.00000  -0.00003  -0.00003   2.15192
    A1        1.81199  -0.00012  -0.00107   0.00003  -0.00104   1.81094
    A2        3.11635  -0.00003  -0.01828   0.00000  -0.01829   3.09806
    A3        3.37165   0.00001  -0.00064   0.00000  -0.00064   3.37101
    A4        3.14159   0.00000   0.00000   0.00000   0.00000   3.14159
    A5        3.14159   0.00000   0.00000   0.00000   0.00000   3.14159
         Item               Value     Threshold  Converged?
 Maximum Force            0.000196     0.000450     YES
 RMS     Force            0.000090     0.000300     YES
 Maximum Displacement     0.022218     0.001800     NO 
 RMS     Displacement     0.011202     0.001200     NO 
 Predicted change in Energy=-3.777410D-07
 GradGradGradGradGradGradGradGradGradGradGradGradGradGradGradGradGradGrad

                          Input orientation:                          
 ---------------------------------------------------------------------
 Center     Atomic      Atomic             Coordinates (Angstroms)
 Number     Number       Type             X           Y           Z
 ---------------------------------------------------------------------
      1          8           0       -0.317552   -0.615978    0.000000
      2          1           0        0.646229   -0.562465    0.000000
      3          1           0       -0.598687    0.307181    0.000000
      4          8           0        2.923184   -0.336304    0.000000
      5          6           0        4.052263   -0.484396    0.000000
 ---------------------------------------------------------------------
                    Distance matrix (angstroms):
                    1          2          3          4          5
     1  O    0.000000
     2  H    0.965265   0.000000
     3  H    0.965018   1.518585   0.000000
     4  O    3.252782   2.288159   3.580175   0.000000
     5  C    4.371795   3.406929   4.717831   1.138749   0.000000
 Stoichiometry    CH2O2
 Framework group  CS[SG(CH2O2)]
 Deg. of freedom     7
 Full point group                 CS      NOp   2
 Largest Abelian subgroup         CS      NOp   2
 Largest concise Abelian subgroup C1      NOp   1
                         Standard orientation:                         
 ---------------------------------------------------------------------
 Center     Atomic      Atomic             Coordinates (Angstroms)
 Number     Number       Type             X           Y           Z
 ---------------------------------------------------------------------
      1          8           0        0.071722   -2.206289    0.000000
      2          1           0        0.020904   -1.242362    0.000000
      3          1           0        1.019830   -2.386149    0.000000
      4          8           0        0.000000    1.045702    0.000000
      5          6           0       -0.269085    2.152202    0.000000
 ---------------------------------------------------------------------
 Rotational constants (GHZ):         469.1791694           3.1816214           3.1601913
 Standard basis: 6-31G(d,p) (6D, 7F)
 There are    41 symmetry adapted cartesian basis functions of A'  symmetry.
 There are    14 symmetry adapted cartesian basis functions of A"  symmetry.
 There are    41 symmetry adapted basis functions of A'  symmetry.
 There are    14 symmetry adapted basis functions of A"  symmetry.
    55 basis functions,    98 primitive gaussians,    55 cartesian basis functions
    12 alpha electrons       12 beta electrons
       nuclear repulsion energy        52.2861510267 Hartrees.
 NAtoms=    5 NActive=    5 NUniq=    5 SFac= 1.00D+00 NAtFMM=   60 NAOKFM=F Big=F
 Integral buffers will be    131072 words long.
 Raffenetti 2 integral format.
 Two-electron integral symmetry is turned on.
 One-electron integrals computed using PRISM.
 NBasis=    55 RedAO= T EigKep=  7.86D-03  NBF=    41    14
 NBsUse=    55 1.00D-06 EigRej= -1.00D+00 NBFU=    41    14
 Initial guess from the checkpoint file:  "Z:\Desktop\0620\CO(1)H(1)1_2.chk"
 B after Tr=     0.000000    0.000000    0.000000
         Rot=    0.999999    0.000000    0.000000    0.001168 Ang=   0.13 deg.
 Initial guess orbital symmetries:
       Occupied  (A') (A') (A') (A') (A') (A') (A') (A") (A') (A')
                 (A') (A")
       Virtual   (A') (A") (A') (A') (A') (A") (A') (A') (A') (A')
                 (A') (A') (A") (A') (A") (A') (A') (A') (A') (A")
                 (A') (A") (A') (A") (A') (A") (A") (A') (A') (A')
                 (A') (A') (A") (A') (A") (A") (A') (A') (A') (A')
                 (A') (A') (A')
 ExpMin= 1.61D-01 ExpMax= 5.48D+03 ExpMxC= 8.25D+02 IAcc=3 IRadAn=         5 AccDes= 0.00D+00
 Harris functional with IExCor=  402 and IRadAn=       5 diagonalized for initial guess.
 HarFok:  IExCor=  402 AccDes= 0.00D+00 IRadAn=         5 IDoV= 1 UseB2=F ITyADJ=14
 ICtDFT=  3500011 ScaDFX=  1.000000  1.000000  1.000000  1.000000
 FoFCou: FMM=F IPFlag=           0 FMFlag=      100000 FMFlg1=           0
         NFxFlg=           0 DoJE=T BraDBF=F KetDBF=T FulRan=T
         wScrn=  0.000000 ICntrl=       500 IOpCl=  0 I1Cent=   200000004 NGrid=           0
         NMat0=    1 NMatS0=      1 NMatT0=    0 NMatD0=    1 NMtDS0=    0 NMtDT0=    0
 Petite list used in FoFCou.
 Keep R1 ints in memory in symmetry-blocked form, NReq=2067981.
 Requested convergence on RMS density matrix=1.00D-08 within 128 cycles.
 Requested convergence on MAX density matrix=1.00D-06.
 Requested convergence on             energy=1.00D-06.
 No special actions if energy rises.
 Integral accuracy reduced to 1.0D-05 until final iterations.
 Initial convergence to 1.0D-05 achieved.  Increase integral accuracy.
 SCF Done:  E(RB3LYP) =  -189.731392358     A.U. after    9 cycles
            NFock=  9  Conv=0.18D-08     -V/T= 2.0084
 Calling FoFJK, ICntrl=      2127 FMM=F ISym2X=1 I1Cent= 0 IOpClX= 0 NMat=1 NMatS=1 NMatT=0.
 ***** Axes restored to original set *****
 -------------------------------------------------------------------
 Center     Atomic                   Forces (Hartrees/Bohr)
 Number     Number              X              Y              Z
 -------------------------------------------------------------------
      1        8           0.000001729    0.000001187    0.000000000
      2        1          -0.000001417   -0.000001992    0.000000000
      3        1          -0.000001492    0.000000443    0.000000000
      4        8          -0.000001025    0.000001350    0.000000000
      5        6           0.000002204   -0.000000988    0.000000000
 -------------------------------------------------------------------
 Cartesian Forces:  Max     0.000002204 RMS     0.000001197

 GradGradGradGradGradGradGradGradGradGradGradGradGradGradGradGradGradGrad
 Berny optimization.
 Using GEDIIS/GDIIS optimizer.
 FormGI is forming the generalized inverse of G from B-inverse, IUseBI=4.
 Internal  Forces:  Max     0.000002433 RMS     0.000001305
 Search for a local minimum.
 Step number  13 out of a maximum of   20
 All quantities printed in internal units (Hartrees-Bohrs-Radians)
 Mixed Optimization -- En-DIIS/RFO-DIIS
 Swapping is turned off.
 Update second derivatives using D2CorX and points    4    5    6    7    8
                                                      9   10   11   12   13
 DE= -5.63D-07 DEPred=-3.78D-07 R= 1.49D+00
 Trust test= 1.49D+00 RLast= 2.09D-02 DXMaxT set to 8.77D-01
 The second derivative matrix:
                          R1        R2        R3        R4        A1
           R1           0.54736
           R2          -0.00739   0.55153
           R3           0.00086  -0.00052   0.00468
           R4          -0.02837  -0.05233  -0.00177   1.19106
           A1           0.00169  -0.00293   0.00030   0.04776   0.17004
           A2           0.00163   0.00215   0.00100  -0.00484  -0.00299
           A3          -0.00016   0.00002  -0.00022   0.00030   0.00052
           A4           0.00000   0.00000   0.00000   0.00000   0.00000
           A5           0.00000   0.00000   0.00000   0.00000   0.00000
                          A2        A3        A4        A5
           A2           0.00253
           A3          -0.00065   0.00136
           A4           0.00000   0.00000   0.00230
           A5           0.00000   0.00000   0.00000   0.04311
 ITU=  0  1  1  1  1  1  1  1  1  1
     Eigenvalues ---    0.00105   0.00230   0.00232   0.00511   0.04311
     Eigenvalues ---    0.16783   0.53710   0.55640   1.19874
 En-DIIS/RFO-DIIS/Sim-DIIS IScMMF=       -3 using points:    13   12   11   10    9    8    7    6    5
 RFO step:  Lambda=-9.48694932D-11.
 DIIS inversion failure, remove point   9.
 DIIS inversion failure, remove point   8.
 DIIS inversion failure, remove point   7.
 DIIS inversion failure, remove point   6.
 DIIS inversion failure, remove point   5.
 DIIS inversion failure, remove point   4.
 RFO-DIIS uses    3 points instead of    9
 DidBck=F Rises=F RFO-DIIS coefs:    0.97874    0.04472   -0.02346    0.00000    0.00000
                  RFO-DIIS coefs:    0.00000    0.00000    0.00000    0.00000
 Iteration  1 RMS(Cart)=  0.00047610 RMS(Int)=  0.00000028
 Iteration  2 RMS(Cart)=  0.00000027 RMS(Int)=  0.00000000
 ClnCor:  largest displacement from symmetrization is 3.29D-14 for atom     2.
 Variable       Old X    -DE/DX   Delta X   Delta X   Delta X     New X
                                 (Linear)    (Quad)   (Total)
    R1        1.82409   0.00000   0.00001  -0.00001   0.00000   1.82409
    R2        1.82362   0.00000   0.00001  -0.00001   0.00000   1.82362
    R3        4.32399   0.00000  -0.00006   0.00029   0.00022   4.32422
    R4        2.15192   0.00000   0.00000   0.00000   0.00000   2.15193
    A1        1.81094   0.00000  -0.00003   0.00004   0.00001   1.81095
    A2        3.09806   0.00000  -0.00013   0.00015   0.00003   3.09809
    A3        3.37101   0.00000   0.00104   0.00001   0.00105   3.37206
    A4        3.14159   0.00000   0.00000   0.00000   0.00000   3.14159
    A5        3.14159   0.00000   0.00000   0.00000   0.00000   3.14159
         Item               Value     Threshold  Converged?
 Maximum Force            0.000002     0.000450     YES
 RMS     Force            0.000001     0.000300     YES
 Maximum Displacement     0.001009     0.001800     YES
 RMS     Displacement     0.000476     0.001200     YES
 Predicted change in Energy=-8.529118D-10
 Optimization completed.
    -- Stationary point found.
                           ----------------------------
                           !   Optimized Parameters   !
                           ! (Angstroms and Degrees)  !
 --------------------------                            --------------------------
 ! Name  Definition              Value          Derivative Info.                !
 --------------------------------------------------------------------------------
 ! R1    R(1,2)                  0.9653         -DE/DX =    0.0                 !
 ! R2    R(1,3)                  0.965          -DE/DX =    0.0                 !
 ! R3    R(2,4)                  2.2882         -DE/DX =    0.0                 !
 ! R4    R(4,5)                  1.1387         -DE/DX =    0.0                 !
 ! A1    A(2,1,3)              103.7594         -DE/DX =    0.0                 !
 ! A2    L(1,2,4,3,-1)         177.5057         -DE/DX =    0.0                 !
 ! A3    L(2,4,5,3,-1)         193.1447         -DE/DX =    0.0                 !
 ! A4    L(1,2,4,3,-2)         180.0            -DE/DX =    0.0                 !
 ! A5    L(2,4,5,3,-2)         180.0            -DE/DX =    0.0                 !
 --------------------------------------------------------------------------------
 GradGradGradGradGradGradGradGradGradGradGradGradGradGradGradGradGradGrad

                          Input orientation:                          
 ---------------------------------------------------------------------
 Center     Atomic      Atomic             Coordinates (Angstroms)
 Number     Number       Type             X           Y           Z
 ---------------------------------------------------------------------
      1          8           0       -0.317552   -0.615978    0.000000
      2          1           0        0.646229   -0.562465    0.000000
      3          1           0       -0.598687    0.307181    0.000000
      4          8           0        2.923184   -0.336304    0.000000
      5          6           0        4.052263   -0.484396    0.000000
 ---------------------------------------------------------------------
                    Distance matrix (angstroms):
                    1          2          3          4          5
     1  O    0.000000
     2  H    0.965265   0.000000
     3  H    0.965018   1.518585   0.000000
     4  O    3.252782   2.288159   3.580175   0.000000
     5  C    4.371795   3.406929   4.717831   1.138749   0.000000
 Stoichiometry    CH2O2
 Framework group  CS[SG(CH2O2)]
 Deg. of freedom     7
 Full point group                 CS      NOp   2
 Largest Abelian subgroup         CS      NOp   2
 Largest concise Abelian subgroup C1      NOp   1
                         Standard orientation:                         
 ---------------------------------------------------------------------
 Center     Atomic      Atomic             Coordinates (Angstroms)
 Number     Number       Type             X           Y           Z
 ---------------------------------------------------------------------
      1          8           0        0.071722   -2.206289    0.000000
      2          1           0        0.020904   -1.242362    0.000000
      3          1           0        1.019830   -2.386149    0.000000
      4          8           0        0.000000    1.045702    0.000000
      5          6           0       -0.269085    2.152202    0.000000
 ---------------------------------------------------------------------
 Rotational constants (GHZ):         469.1791694           3.1816214           3.1601913

 **********************************************************************

            Population analysis using the SCF Density.

 **********************************************************************

 Orbital symmetries:
       Occupied  (A') (A') (A') (A') (A') (A') (A') (A") (A') (A')
                 (A') (A")
       Virtual   (A') (A") (A') (A') (A') (A") (A') (A') (A') (A')
                 (A') (A') (A") (A') (A") (A') (A') (A') (A') (A")
                 (A') (A") (A') (A") (A') (A") (A") (A') (A') (A')
                 (A') (A') (A") (A') (A") (A") (A') (A') (A') (A')
                 (A') (A') (A')
 The electronic state is 1-A'.
 Alpha  occ. eigenvalues --  -19.27623 -19.12961 -10.32226  -1.17563  -0.98955
 Alpha  occ. eigenvalues --   -0.59449  -0.50631  -0.48501  -0.48490  -0.38709
 Alpha  occ. eigenvalues --   -0.36279  -0.28466
 Alpha virt. eigenvalues --   -0.03815  -0.03781   0.07849   0.16648   0.26762
 Alpha virt. eigenvalues --    0.49871   0.49877   0.56529   0.73633   0.76355
 Alpha virt. eigenvalues --    0.81237   0.84598   0.88442   0.90656   0.91084
 Alpha virt. eigenvalues --    0.94137   1.08528   1.35502   1.38997   1.46250
 Alpha virt. eigenvalues --    1.46268   1.52142   1.52691   1.53738   1.56548
 Alpha virt. eigenvalues --    1.65105   1.92467   1.92474   2.25987   2.27820
 Alpha virt. eigenvalues --    2.38636   2.45901   2.57835   2.57933   2.64999
 Alpha virt. eigenvalues --    2.67526   2.99858   3.04218   3.35009   3.57192
 Alpha virt. eigenvalues --    3.65276   3.79999   3.94127
          Condensed to atoms (all electrons):
               1          2          3          4          5
     1  O    8.059143   0.283772   0.284684  -0.002025   0.000068
     2  H    0.283772   0.423009  -0.029890   0.014040   0.000234
     3  H    0.284684  -0.029890   0.444387   0.000079   0.000006
     4  O   -0.002025   0.014040   0.000079   7.594005   0.571853
     5  C    0.000068   0.000234   0.000006   0.571853   5.233818
 Mulliken charges:
               1
     1  O   -0.625640
     2  H    0.308836
     3  H    0.300734
     4  O   -0.177952
     5  C    0.194022
 Sum of Mulliken charges =   0.00000
 Mulliken charges with hydrogens summed into heavy atoms:
               1
     1  O   -0.016070
     4  O   -0.177952
     5  C    0.194022
 Electronic spatial extent (au):  <R**2>=            341.0983
 Charge=              0.0000 electrons
 Dipole moment (field-independent basis, Debye):
    X=              1.4956    Y=              1.6251    Z=              0.0000  Tot=              2.2086
 Quadrupole moment (field-independent basis, Debye-Ang):
   XX=            -14.7198   YY=            -22.4879   ZZ=            -16.9846
   XY=             -3.4442   XZ=              0.0000   YZ=              0.0000
 Traceless Quadrupole moment (field-independent basis, Debye-Ang):
   XX=              3.3443   YY=             -4.4238   ZZ=              1.0795
   XY=             -3.4442   XZ=              0.0000   YZ=              0.0000
 Octapole moment (field-independent basis, Debye-Ang**2):
  XXX=              3.3908  YYY=             -5.2622  ZZZ=              0.0000  XYY=             12.2539
  XXY=             -6.4809  XXZ=              0.0000  XZZ=              0.4394  YZZ=             -0.4979
  YYZ=              0.0000  XYZ=              0.0000
 Hexadecapole moment (field-independent basis, Debye-Ang**3):
 XXXX=            -15.7247 YYYY=           -437.1408 ZZZZ=            -12.9098 XXXY=             10.9338
 XXXZ=              0.0000 YYYX=             -1.3706 YYYZ=              0.0000 ZZZX=              0.0000
 ZZZY=              0.0000 XXYY=            -56.1808 XXZZ=             -5.1437 YYZZ=            -67.2568
 XXYZ=              0.0000 YYXZ=              0.0000 ZZXY=              5.1850
 N-N= 5.228615102672D+01 E-N=-5.506896908654D+02  KE= 1.881527720550D+02
 Symmetry A'   KE= 1.794937925834D+02
 Symmetry A"   KE= 8.658979471647D+00
 Unable to Open any file for archive entry.
 1|1|UNPC-PCHID016|FOpt|RB3LYP|6-31G(d,p)|C1H2O2|S202036C|20-Jun-2023|0
 ||# opt b3lyp/6-31g(d,p) geom=connectivity||Title Card Required||0,1|O
 ,-0.3175519411,-0.6159783008,0.|H,0.6462289415,-0.5624653571,0.|H,-0.5
 98687097,0.3071806582,0.|O,2.9231841361,-0.336304176,0.|C,4.0522629205
 ,-0.4843961843,0.||Version=EM64W-G16RevC.01|State=1-A'|HF=-189.7313924
 |RMSD=1.818e-009|RMSF=1.197e-006|Dipole=0.5721117,0.6539942,0.|Quadrup
 ole=-2.6722279,1.8696238,0.8026041,-3.1207194,0.,0.|PG=CS [SG(C1H2O2)]
 ||@
 The archive entry for this job was punched.


 In the beginning there was nothing, which exploded.
 Job cpu time:       0 days  0 hours  1 minutes 15.0 seconds.
 Elapsed time:       0 days  0 hours  0 minutes 59.6 seconds.
 File lengths (MBytes):  RWF=      6 Int=      0 D2E=      0 Chk=      1 Scr=      1
 Normal termination of Gaussian 16 at Tue Jun 20 16:36:42 2023.
