 Entering Link 1 = C:\G16W\l1.exe PID=      9720.
  
 Copyright (c) 1988-2019, Gaussian, Inc.  All Rights Reserved.
  
 This is part of the Gaussian(R) 16 program.  It is based on
 the Gaussian(R) 09 system (copyright 2009, Gaussian, Inc.),
 the Gaussian(R) 03 system (copyright 2003, Gaussian, Inc.),
 the Gaussian(R) 98 system (copyright 1998, Gaussian, Inc.),
 the Gaussian(R) 94 system (copyright 1995, Gaussian, Inc.),
 the Gaussian 92(TM) system (copyright 1992, Gaussian, Inc.),
 the Gaussian 90(TM) system (copyright 1990, Gaussian, Inc.),
 the Gaussian 88(TM) system (copyright 1988, Gaussian, Inc.),
 the Gaussian 86(TM) system (copyright 1986, Carnegie Mellon
 University), and the Gaussian 82(TM) system (copyright 1983,
 Carnegie Mellon University). Gaussian is a federally registered
 trademark of Gaussian, Inc.
  
 This software contains proprietary and confidential information,
 including trade secrets, belonging to Gaussian, Inc.
  
 This software is provided under written license and may be
 used, copied, transmitted, or stored only in accord with that
 written license.
  
 The following legend is applicable only to US Government
 contracts under FAR:
  
                    RESTRICTED RIGHTS LEGEND
  
 Use, reproduction and disclosure by the US Government is
 subject to restrictions as set forth in subparagraphs (a)
 and (c) of the Commercial Computer Software - Restricted
 Rights clause in FAR 52.227-19.
  
 Gaussian, Inc.
 340 Quinnipiac St., Bldg. 40, Wallingford CT 06492
  
  
 ---------------------------------------------------------------
 Warning -- This program may not be used in any manner that
 competes with the business of Gaussian, Inc. or will provide
 assistance to any competitor of Gaussian, Inc.  The licensee
 of this program is prohibited from giving any competitor of
 Gaussian, Inc. access to this program.  By using this program,
 the user acknowledges that Gaussian, Inc. is engaged in the
 business of creating and licensing software in the field of
 computational chemistry and represents and warrants to the
 licensee that it is not a competitor of Gaussian, Inc. and that
 it will not use this program in any manner prohibited above.
 ---------------------------------------------------------------
  

 Cite this work as:
 Gaussian 16, Revision C.01,
 M. J. Frisch, G. W. Trucks, H. B. Schlegel, G. E. Scuseria, 
 M. A. Robb, J. R. Cheeseman, G. Scalmani, V. Barone, 
 G. A. Petersson, H. Nakatsuji, X. Li, M. Caricato, A. V. Marenich, 
 J. Bloino, B. G. Janesko, R. Gomperts, B. Mennucci, H. P. Hratchian, 
 J. V. Ortiz, A. F. Izmaylov, J. L. Sonnenberg, D. Williams-Young, 
 F. Ding, F. Lipparini, F. Egidi, J. Goings, B. Peng, A. Petrone, 
 T. Henderson, D. Ranasinghe, V. G. Zakrzewski, J. Gao, N. Rega, 
 G. Zheng, W. Liang, M. Hada, M. Ehara, K. Toyota, R. Fukuda, 
 J. Hasegawa, M. Ishida, T. Nakajima, Y. Honda, O. Kitao, H. Nakai, 
 T. Vreven, K. Throssell, J. A. Montgomery, Jr., J. E. Peralta, 
 F. Ogliaro, M. J. Bearpark, J. J. Heyd, E. N. Brothers, K. N. Kudin, 
 V. N. Staroverov, T. A. Keith, R. Kobayashi, J. Normand, 
 K. Raghavachari, A. P. Rendell, J. C. Burant, S. S. Iyengar, 
 J. Tomasi, M. Cossi, J. M. Millam, M. Klene, C. Adamo, R. Cammi, 
 J. W. Ochterski, R. L. Martin, K. Morokuma, O. Farkas, 
 J. B. Foresman, and D. J. Fox, Gaussian, Inc., Wallingford CT, 2019.
 
 ******************************************
 Gaussian 16:  EM64W-G16RevC.01 30-May-2019
                20-Jun-2023 
 ******************************************
 %chk=Z:\Desktop\0620\CO(1)H(1).chk
 ----------------------------------------
 # opt b3lyp/6-31g(d,p) geom=connectivity
 ----------------------------------------
 1/18=20,19=15,26=3,38=1,57=2/1,3;
 2/9=110,12=2,17=6,18=5,40=1/2;
 3/5=1,6=6,7=101,11=2,25=1,30=1,71=1,74=-5/1,2,3;
 4//1;
 5/5=2,38=5/2;
 6/7=2,8=2,9=2,10=2,28=1/1;
 7//1,2,3,16;
 1/18=20,19=15,26=3/3(2);
 2/9=110/2;
 99//99;
 2/9=110/2;
 3/5=1,6=6,7=101,11=2,25=1,30=1,71=1,74=-5/1,2,3;
 4/5=5,16=3,69=1/1;
 5/5=2,38=5/2;
 7//1,2,3,16;
 1/18=20,19=15,26=3/3(-5);
 2/9=110/2;
 6/7=2,8=2,9=2,10=2,19=2,28=1/1;
 99/9=1/99;
 -------------------
 Title Card Required
 -------------------
 Symbolic Z-matrix:
 Charge =  0 Multiplicity = 2
 C                    -4.84402   0.65891   0. 
 O                    -3.68312   0.65891   0. 
 H                    -2.23129   0.77472  -0.10368 
 
 Add virtual bond connecting atoms H3         and O2         Dist= 2.76D+00.

 GradGradGradGradGradGradGradGradGradGradGradGradGradGradGradGradGradGrad
 Berny optimization.
 Initialization pass.
                           ----------------------------
                           !    Initial Parameters    !
                           ! (Angstroms and Degrees)  !
 --------------------------                            --------------------------
 ! Name  Definition              Value          Derivative Info.                !
 --------------------------------------------------------------------------------
 ! R1    R(1,2)                  1.1609         estimate D2E/DX2                !
 ! R2    R(2,3)                  1.4601         estimate D2E/DX2                !
 ! A1    L(1,2,3,-3,-1)        175.4395         estimate D2E/DX2                !
 ! A2    L(1,2,3,-2,-2)        175.9151         estimate D2E/DX2                !
 --------------------------------------------------------------------------------
 Trust Radius=3.00D-01 FncErr=1.00D-07 GrdErr=1.00D-06 EigMax=2.50D+02 EigMin=1.00D-04
 Number of steps in this run=     20 maximum allowed number of steps=    100.
 GradGradGradGradGradGradGradGradGradGradGradGradGradGradGradGradGradGrad

                          Input orientation:                          
 ---------------------------------------------------------------------
 Center     Atomic      Atomic             Coordinates (Angstroms)
 Number     Number       Type             X           Y           Z
 ---------------------------------------------------------------------
      1          6           0       -4.844016    0.658915    0.000000
      2          8           0       -3.683116    0.658915    0.000000
      3          1           0       -2.231294    0.774718   -0.103683
 ---------------------------------------------------------------------
                    Distance matrix (angstroms):
                    1          2          3
     1  C    0.000000
     2  O    1.160900   0.000000
     3  H    2.617342   1.460119   0.000000
 Stoichiometry    CHO(2)
 Framework group  CS[SG(CHO)]
 Deg. of freedom     3
 Full point group                 CS      NOp   2
 Largest Abelian subgroup         CS      NOp   2
 Largest concise Abelian subgroup C1      NOp   1
                         Standard orientation:                         
 ---------------------------------------------------------------------
 Center     Atomic      Atomic             Coordinates (Angstroms)
 Number     Number       Type             X           Y           Z
 ---------------------------------------------------------------------
      1          6           0        0.010362   -0.793328    0.000000
      2          8           0        0.010362    0.367572    0.000000
      3          1           0       -0.145074    1.819394    0.000000
 ---------------------------------------------------------------------
 Rotational constants (GHZ):       30121.1304508          39.0443181          38.9937726
 Standard basis: 6-31G(d,p) (6D, 7F)
 There are    26 symmetry adapted cartesian basis functions of A'  symmetry.
 There are     9 symmetry adapted cartesian basis functions of A"  symmetry.
 There are    26 symmetry adapted basis functions of A'  symmetry.
 There are     9 symmetry adapted basis functions of A"  symmetry.
    35 basis functions,    63 primitive gaussians,    35 cartesian basis functions
     8 alpha electrons        7 beta electrons
       nuclear repulsion energy        25.9924635622 Hartrees.
 NAtoms=    3 NActive=    3 NUniq=    3 SFac= 1.00D+00 NAtFMM=   60 NAOKFM=F Big=F
 Integral buffers will be    131072 words long.
 Raffenetti 2 integral format.
 Two-electron integral symmetry is turned on.
 One-electron integrals computed using PRISM.
 NBasis=    35 RedAO= T EigKep=  8.31D-03  NBF=    26     9
 NBsUse=    35 1.00D-06 EigRej= -1.00D+00 NBFU=    26     9
 ExpMin= 1.61D-01 ExpMax= 5.48D+03 ExpMxC= 8.25D+02 IAcc=3 IRadAn=         5 AccDes= 0.00D+00
 Harris functional with IExCor=  402 and IRadAn=       5 diagonalized for initial guess.
 HarFok:  IExCor=  402 AccDes= 0.00D+00 IRadAn=         5 IDoV= 1 UseB2=F ITyADJ=14
 ICtDFT=  3500011 ScaDFX=  1.000000  1.000000  1.000000  1.000000
 FoFCou: FMM=F IPFlag=           0 FMFlag=      100000 FMFlg1=           0
         NFxFlg=           0 DoJE=T BraDBF=F KetDBF=T FulRan=T
         wScrn=  0.000000 ICntrl=       500 IOpCl=  0 I1Cent=   200000004 NGrid=           0
         NMat0=    1 NMatS0=      1 NMatT0=    0 NMatD0=    1 NMtDS0=    0 NMtDT0=    0
 Petite list used in FoFCou.
 Initial guess orbital symmetries:
 Alpha Orbitals:
       Occupied  (A') (A') (A') (A') (A') (A") (A') (A')
       Virtual   (A") (A') (A') (A') (A") (A') (A') (A') (A') (A")
                 (A') (A') (A") (A') (A") (A') (A") (A') (A") (A')
                 (A') (A') (A") (A') (A') (A') (A')
 Beta  Orbitals:
       Occupied  (A') (A') (A') (A') (A') (A") (A')
       Virtual   (A') (A") (A') (A') (A') (A") (A') (A') (A') (A')
                 (A") (A') (A') (A") (A') (A") (A') (A") (A') (A")
                 (A') (A') (A') (A") (A') (A') (A') (A')
 The electronic state of the initial guess is 2-A'.
 Initial guess <Sx>= 0.0000 <Sy>= 0.0000 <Sz>= 0.5000 <S**2>= 0.7500 S= 0.5000
 Keep R1 and R2 ints in memory in symmetry-blocked form, NReq=1078317.
 Requested convergence on RMS density matrix=1.00D-08 within 128 cycles.
 Requested convergence on MAX density matrix=1.00D-06.
 Requested convergence on             energy=1.00D-06.
 No special actions if energy rises.
 Integral accuracy reduced to 1.0D-05 until final iterations.
 Initial convergence to 1.0D-05 achieved.  Increase integral accuracy.
 SCF Done:  E(UB3LYP) =  -113.768466300     A.U. after   15 cycles
            NFock= 15  Conv=0.40D-08     -V/T= 2.0076
 <Sx>= 0.0000 <Sy>= 0.0000 <Sz>= 0.5000 <S**2>= 0.7510 S= 0.5005
 <L.S>= 0.000000000000E+00
 Annihilation of the first spin contaminant:
 S**2 before annihilation     0.7510,   after     0.7500

 **********************************************************************

            Population analysis using the SCF Density.

 **********************************************************************

 Orbital symmetries:
 Alpha Orbitals:
       Occupied  (A') (A') (A') (A') (A') (A") (A') (A')
       Virtual   (A") (A') (A') (A') (A") (A') (A') (A') (A') (A")
                 (A') (A') (A") (A') (A") (A') (A") (A') (A") (A')
                 (A') (A') (A") (A') (A') (A') (A')
 Beta  Orbitals:
       Occupied  (A') (A') (A') (A') (A') (A") (A')
       Virtual   (A') (A") (A') (A') (A") (A') (A') (A') (A') (A')
                 (A") (A') (A') (A") (A') (A") (A') (A") (A') (A")
                 (A') (A') (A') (A") (A') (A') (A') (A')
 The electronic state is 2-A'.
 Alpha  occ. eigenvalues --  -19.28282 -10.33591  -1.17515  -0.64478  -0.48779
 Alpha  occ. eigenvalues --   -0.48747  -0.40342  -0.19993
 Alpha virt. eigenvalues --   -0.05369  -0.05354   0.25596   0.49581   0.49607
 Alpha virt. eigenvalues --    0.55922   0.59917   0.75556   0.87572   0.87727
 Alpha virt. eigenvalues --    1.08480   1.37536   1.46210   1.46236   1.47064
 Alpha virt. eigenvalues --    1.47192   1.90324   1.90326   2.05822   2.05915
 Alpha virt. eigenvalues --    2.32099   2.33607   2.57458   2.58753   3.29645
 Alpha virt. eigenvalues --    3.70201   3.90218
  Beta  occ. eigenvalues --  -19.27741 -10.33526  -1.16895  -0.61929  -0.48243
  Beta  occ. eigenvalues --   -0.48239  -0.39708
  Beta virt. eigenvalues --   -0.05213  -0.05160   0.00044   0.25885   0.49585
  Beta virt. eigenvalues --    0.49612   0.56026   0.64670   0.82856   0.88153
  Beta virt. eigenvalues --    0.88286   1.13639   1.39097   1.46405   1.46418
  Beta virt. eigenvalues --    1.47747   1.48115   1.90629   1.90629   2.18902
  Beta virt. eigenvalues --    2.19045   2.33874   2.39066   2.58982   2.60457
  Beta virt. eigenvalues --    3.34327   3.71967   3.90341
          Condensed to atoms (all electrons):
               1          2          3
     1  C    5.229623   0.531726   0.016858
     2  O    0.531726   7.816861  -0.218979
     3  H    0.016858  -0.218979   1.294306
          Atomic-Atomic Spin Densities.
               1          2          3
     1  C    0.026208  -0.031590   0.018470
     2  O   -0.031590   0.370772  -0.308493
     3  H    0.018470  -0.308493   1.246246
 Mulliken charges and spin densities:
               1          2
     1  C    0.221793   0.013088
     2  O   -0.129608   0.030689
     3  H   -0.092185   0.956223
 Sum of Mulliken charges =   0.00000   1.00000
 Mulliken charges and spin densities with hydrogens summed into heavy atoms:
               1          2
     1  C    0.221793   0.013088
     2  O   -0.221793   0.986912
 Electronic spatial extent (au):  <R**2>=             57.6064
 Charge=              0.0000 electrons
 Dipole moment (field-independent basis, Debye):
    X=              0.1061    Y=             -1.1206    Z=              0.0000  Tot=              1.1256
 Quadrupole moment (field-independent basis, Debye-Ang):
   XX=            -11.2018   YY=            -15.7763   ZZ=            -11.1671
   XY=              0.2443   XZ=              0.0000   YZ=              0.0000
 Traceless Quadrupole moment (field-independent basis, Debye-Ang):
   XX=              1.5133   YY=             -3.0612   ZZ=              1.5480
   XY=              0.2443   XZ=              0.0000   YZ=              0.0000
 Octapole moment (field-independent basis, Debye-Ang**2):
  XXX=              0.3876  YYY=             -4.1610  ZZZ=              0.0000  XYY=              0.7013
  XXY=             -0.4888  XXZ=              0.0000  XZZ=              0.1280  YZZ=             -0.4476
  YYZ=              0.0000  XYZ=              0.0000
 Hexadecapole moment (field-independent basis, Debye-Ang**3):
 XXXX=             -9.5244 YYYY=            -85.1190 ZZZZ=             -9.2866 XXXY=              1.3782
 XXXZ=              0.0000 YYYX=              2.4890 YYYZ=              0.0000 ZZZX=              0.0000
 ZZZY=              0.0000 XXYY=            -12.9289 XXZZ=             -3.1351 YYZZ=            -12.7866
 XXYZ=              0.0000 YYXZ=              0.0000 ZZXY=              0.4567
 N-N= 2.599246356215D+01 E-N=-3.183909148313D+02  KE= 1.129108581995D+02
 Symmetry A'   KE= 1.088302224344D+02
 Symmetry A"   KE= 4.080635765107D+00
 Symmetry A'   SP= 1.000000000000D+00
 Symmetry A"   SP= 3.569469684563D-15
                          Isotropic Fermi Contact Couplings
        Atom                 a.u.       MegaHertz       Gauss      10(-4) cm-1
     1  C(13)              0.01532      17.22564       6.14654       5.74586
     2  O(17)              0.58280    -353.29093    -126.06299    -117.84517
     3  H(1)               0.28165    1258.95693     449.22714     419.94283
 --------------------------------------------------------
       Center         ----  Spin Dipole Couplings  ----
                      3XX-RR        3YY-RR        3ZZ-RR
 --------------------------------------------------------
     1   Atom       -0.036355      0.088818     -0.052463
     2   Atom       -0.141400      0.271875     -0.130475
     3   Atom        0.010866     -0.022183      0.011317
 --------------------------------------------------------
                        XY            XZ            YZ
 --------------------------------------------------------
     1   Atom        0.048382      0.000000      0.000000
     2   Atom        0.059477      0.000000      0.000000
     3   Atom        0.003901      0.000000      0.000000
 --------------------------------------------------------


 ---------------------------------------------------------------------------------
              Anisotropic Spin Dipole Couplings in Principal Axis System
 ---------------------------------------------------------------------------------

       Atom             a.u.   MegaHertz   Gauss  10(-4) cm-1        Axes

              Baa    -0.0529    -7.095    -2.532    -2.367  0.9464 -0.3231  0.0000
     1 C(13)  Bbb    -0.0525    -7.040    -2.512    -2.348  0.0000  0.0000  1.0000
              Bcc     0.1053    14.135     5.044     4.715  0.3231  0.9464  0.0000
 
              Baa    -0.1498    10.839     3.867     3.615  0.9902 -0.1397  0.0000
     2 O(17)  Bbb    -0.1305     9.441     3.369     3.149  0.0000  0.0000  1.0000
              Bcc     0.2803   -20.280    -7.236    -6.765  0.1397  0.9902  0.0000
 
              Baa    -0.0226   -12.078    -4.310    -4.029 -0.1157  0.9933  0.0000
     3 H(1)   Bbb     0.0113     6.038     2.155     2.014  0.0000  0.0000  1.0000
              Bcc     0.0113     6.040     2.155     2.015  0.9933  0.1157  0.0000
 

 ---------------------------------------------------------------------------------

 Calling FoFJK, ICntrl=      2127 FMM=F ISym2X=1 I1Cent= 0 IOpClX= 1 NMat=1 NMatS=1 NMatT=0.
 ***** Axes restored to original set *****
 -------------------------------------------------------------------
 Center     Atomic                   Forces (Hartrees/Bohr)
 Number     Number              X              Y              Z
 -------------------------------------------------------------------
      1        6           0.037658747    0.002803171   -0.002509794
      2        8          -0.100288330   -0.010040211    0.008989414
      3        1           0.062629583    0.007237040   -0.006479620
 -------------------------------------------------------------------
 Cartesian Forces:  Max     0.100288330 RMS     0.041751284

 GradGradGradGradGradGradGradGradGradGradGradGradGradGradGradGradGradGrad
 Berny optimization.
 FormGI is forming the generalized inverse of G from B-inverse, IUseBI=4.
 Internal  Forces:  Max     0.059400831 RMS     0.036864667
 Search for a local minimum.
 Step number   1 out of a maximum of   20
 All quantities printed in internal units (Hartrees-Bohrs-Radians)
 Mixed Optimization -- RFO/linear search
 Second derivative matrix not updated -- first step.
 The second derivative matrix:
                          R1        R2        A1        A2
           R1           1.27207
           R2           0.00000   0.12431
           A1           0.00000   0.00000   0.00230
           A2           0.00000   0.00000   0.00000   0.00230
 ITU=  0
     Eigenvalues ---    0.00230   0.07981   0.95395
 RFO step:  Lambda=-2.93083080D-02 EMin= 2.30000000D-03
 Linear search not attempted -- first point.
 Maximum step size (   0.300) exceeded in Quadratic search.
    -- Step size scaled by   0.603
 Iteration  1 RMS(Cart)=  0.11139418 RMS(Int)=  0.02172614
 Iteration  2 RMS(Cart)=  0.01525577 RMS(Int)=  0.00012321
 Iteration  3 RMS(Cart)=  0.00000768 RMS(Int)=  0.00012288
 Iteration  4 RMS(Cart)=  0.00000000 RMS(Int)=  0.00012288
 ClnCor:  largest displacement from symmetrization is 2.78D-16 for atom     3.
 Variable       Old X    -DE/DX   Delta X   Delta X   Delta X     New X
                                 (Linear)    (Quad)   (Total)
    R1        2.19378  -0.04154   0.00000  -0.01768  -0.01768   2.17610
    R2        2.75923   0.05940   0.00000   0.24638   0.24638   3.00560
    A1        3.06200  -0.01008   0.00000  -0.12694  -0.12678   2.93522
    A2        3.07030  -0.00896   0.00000  -0.11345  -0.11363   2.95666
         Item               Value     Threshold  Converged?
 Maximum Force            0.059401     0.000450     NO 
 RMS     Force            0.036865     0.000300     NO 
 Maximum Displacement     0.135007     0.001800     NO 
 RMS     Displacement     0.123661     0.001200     NO 
 Predicted change in Energy=-1.366042D-02
 GradGradGradGradGradGradGradGradGradGradGradGradGradGradGradGradGradGrad

                          Input orientation:                          
 ---------------------------------------------------------------------
 Center     Atomic      Atomic             Coordinates (Angstroms)
 Number     Number       Type             X           Y           Z
 ---------------------------------------------------------------------
      1          6           0       -4.872013    0.688213   -0.026232
      2          8           0       -3.726561    0.600083    0.052674
      3          1           0       -2.159851    0.804251   -0.130125
 ---------------------------------------------------------------------
                    Distance matrix (angstroms):
                    1          2          3
     1  C    0.000000
     2  O    1.151544   0.000000
     3  H    2.716631   1.590497   0.000000
 Stoichiometry    CHO(2)
 Framework group  CS[SG(CHO)]
 Deg. of freedom     3
 Full point group                 CS      NOp   2
 Largest Abelian subgroup         CS      NOp   2
 Largest concise Abelian subgroup C1      NOp   1
                         Standard orientation:                         
 ---------------------------------------------------------------------
 Center     Atomic      Atomic             Coordinates (Angstroms)
 Number     Number       Type             X           Y           Z
 ---------------------------------------------------------------------
      1          6           0        0.028902   -0.792945    0.000000
      2          8           0        0.028902    0.358600    0.000000
      3          1           0       -0.404631    1.888870    0.000000
 ---------------------------------------------------------------------
 Rotational constants (GHZ):        3992.5893727          38.4826228          38.1152485
 Standard basis: 6-31G(d,p) (6D, 7F)
 There are    26 symmetry adapted cartesian basis functions of A'  symmetry.
 There are     9 symmetry adapted cartesian basis functions of A"  symmetry.
 There are    26 symmetry adapted basis functions of A'  symmetry.
 There are     9 symmetry adapted basis functions of A"  symmetry.
    35 basis functions,    63 primitive gaussians,    35 cartesian basis functions
     8 alpha electrons        7 beta electrons
       nuclear repulsion energy        25.8882216124 Hartrees.
 NAtoms=    3 NActive=    3 NUniq=    3 SFac= 1.00D+00 NAtFMM=   60 NAOKFM=F Big=F
 Integral buffers will be    131072 words long.
 Raffenetti 2 integral format.
 Two-electron integral symmetry is turned on.
 One-electron integrals computed using PRISM.
 NBasis=    35 RedAO= T EigKep=  8.13D-03  NBF=    26     9
 NBsUse=    35 1.00D-06 EigRej= -1.00D+00 NBFU=    26     9
 Initial guess from the checkpoint file:  "Z:\Desktop\0620\CO(1)H(1).chk"
 B after Tr=     0.000000    0.000000    0.000000
         Rot=    0.999559    0.000000    0.000000   -0.029688 Ang=  -3.40 deg.
 Initial guess orbital symmetries:
 Alpha Orbitals:
       Occupied  (A') (A') (A') (A') (A') (A") (A') (A')
       Virtual   (A") (A') (A') (A') (A") (A') (A') (A') (A') (A")
                 (A') (A') (A") (A') (A") (A') (A") (A') (A") (A')
                 (A') (A') (A") (A') (A') (A') (A')
 Beta  Orbitals:
       Occupied  (A') (A') (A') (A') (A') (A") (A')
       Virtual   (A') (A") (A') (A') (A") (A') (A') (A') (A') (A')
                 (A") (A') (A') (A") (A') (A") (A') (A") (A') (A")
                 (A') (A') (A') (A") (A') (A') (A') (A')
 Initial guess <Sx>= 0.0000 <Sy>= 0.0000 <Sz>= 0.5000 <S**2>= 0.7511 S= 0.5005
 ExpMin= 1.61D-01 ExpMax= 5.48D+03 ExpMxC= 8.25D+02 IAcc=3 IRadAn=         5 AccDes= 0.00D+00
 Harris functional with IExCor=  402 and IRadAn=       5 diagonalized for initial guess.
 HarFok:  IExCor=  402 AccDes= 0.00D+00 IRadAn=         5 IDoV= 1 UseB2=F ITyADJ=14
 ICtDFT=  3500011 ScaDFX=  1.000000  1.000000  1.000000  1.000000
 FoFCou: FMM=F IPFlag=           0 FMFlag=      100000 FMFlg1=           0
         NFxFlg=           0 DoJE=T BraDBF=F KetDBF=T FulRan=T
         wScrn=  0.000000 ICntrl=       500 IOpCl=  0 I1Cent=   200000004 NGrid=           0
         NMat0=    1 NMatS0=      1 NMatT0=    0 NMatD0=    1 NMtDS0=    0 NMtDT0=    0
 Petite list used in FoFCou.
 Keep R1 and R2 ints in memory in symmetry-blocked form, NReq=1078317.
 Requested convergence on RMS density matrix=1.00D-08 within 128 cycles.
 Requested convergence on MAX density matrix=1.00D-06.
 Requested convergence on             energy=1.00D-06.
 No special actions if energy rises.
 Integral accuracy reduced to 1.0D-05 until final iterations.
 Initial convergence to 1.0D-05 achieved.  Increase integral accuracy.
 SCF Done:  E(UB3LYP) =  -113.783271132     A.U. after   14 cycles
            NFock= 14  Conv=0.60D-08     -V/T= 2.0078
 <Sx>= 0.0000 <Sy>= 0.0000 <Sz>= 0.5000 <S**2>= 0.7509 S= 0.5005
 <L.S>= 0.000000000000E+00
 Annihilation of the first spin contaminant:
 S**2 before annihilation     0.7509,   after     0.7500
 Calling FoFJK, ICntrl=      2127 FMM=F ISym2X=1 I1Cent= 0 IOpClX= 1 NMat=1 NMatS=1 NMatT=0.
 ***** Axes restored to original set *****
 -------------------------------------------------------------------
 Center     Atomic                   Forces (Hartrees/Bohr)
 Number     Number              X              Y              Z
 -------------------------------------------------------------------
      1        6           0.021022868    0.001457092   -0.001304595
      2        8          -0.061521122   -0.008982499    0.008042400
      3        1           0.040498254    0.007525406   -0.006737806
 -------------------------------------------------------------------
 Cartesian Forces:  Max     0.061521122 RMS     0.026072843

 GradGradGradGradGradGradGradGradGradGradGradGradGradGradGradGradGradGrad
 Berny optimization.
 Using GEDIIS/GDIIS optimizer.
 FormGI is forming the generalized inverse of G from B-inverse, IUseBI=4.
 Internal  Forces:  Max     0.040604369 RMS     0.023639043
 Search for a local minimum.
 Step number   2 out of a maximum of   20
 All quantities printed in internal units (Hartrees-Bohrs-Radians)
 Mixed Optimization -- RFO/linear search
 Update second derivatives using D2CorX and points    1    2
 DE= -1.48D-02 DEPred=-1.37D-02 R= 1.08D+00
 TightC=F SS=  1.41D+00  RLast= 3.00D-01 DXNew= 5.0454D-01 9.0000D-01
 Trust test= 1.08D+00 RLast= 3.00D-01 DXMaxT set to 5.05D-01
 The second derivative matrix:
                          R1        R2        A1        A2
           R1           1.28105
           R2           0.01762   0.07202
           A1           0.00668  -0.00599   0.00307
           A2           0.00594  -0.00533   0.00068   0.00291
 ITU=  1  0
 Use linear search instead of GDIIS.
 Linear search step of   0.600 exceeds DXMaxT=   0.505 but not scaled.
 Quartic linear search produced a step of  2.00000.
 Iteration  1 RMS(Cart)=  0.15248601 RMS(Int)=  0.14565224
 Iteration  2 RMS(Cart)=  0.07579402 RMS(Int)=  0.04072046
 Iteration  3 RMS(Cart)=  0.03252335 RMS(Int)=  0.00038932
 Iteration  4 RMS(Cart)=  0.00003374 RMS(Int)=  0.00038800
 Iteration  5 RMS(Cart)=  0.00000000 RMS(Int)=  0.00038800
 ClnCor:  largest displacement from symmetrization is 7.71D-16 for atom     2.
 Variable       Old X    -DE/DX   Delta X   Delta X   Delta X     New X
                                 (Linear)    (Quad)   (Total)
    R1        2.17610  -0.02171  -0.03536   0.00000  -0.03536   2.14074
    R2        3.00560   0.04060   0.49276   0.00000   0.49276   3.49836
    A1        2.93522  -0.00802  -0.25355   0.00000  -0.25304   2.68218
    A2        2.95666  -0.00713  -0.22727   0.00000  -0.22785   2.72882
         Item               Value     Threshold  Converged?
 Maximum Force            0.040604     0.000450     NO 
 RMS     Force            0.023639     0.000300     NO 
 Maximum Displacement     0.228653     0.001800     NO 
 RMS     Displacement     0.236110     0.001200     NO 
 Predicted change in Energy=-1.352574D-02
 GradGradGradGradGradGradGradGradGradGradGradGradGradGradGradGradGradGrad

                          Input orientation:                          
 ---------------------------------------------------------------------
 Center     Atomic      Atomic             Coordinates (Angstroms)
 Number     Number       Type             X           Y           Z
 ---------------------------------------------------------------------
      1          6           0       -4.894404    0.747839   -0.079617
      2          8           0       -3.820542    0.479086    0.161008
      3          1           0       -2.043480    0.865623   -0.185074
 ---------------------------------------------------------------------
                    Distance matrix (angstroms):
                    1          2          3
     1  C    0.000000
     2  O    1.132833   0.000000
     3  H    2.855305   1.851252   0.000000
 Stoichiometry    CHO(2)
 Framework group  CS[SG(CHO)]
 Deg. of freedom     3
 Full point group                 CS      NOp   2
 Largest Abelian subgroup         CS      NOp   2
 Largest concise Abelian subgroup C1      NOp   1
                         Standard orientation:                         
 ---------------------------------------------------------------------
 Center     Atomic      Atomic             Coordinates (Angstroms)
 Number     Number       Type             X           Y           Z
 ---------------------------------------------------------------------
      1          6           0        0.070513   -0.780989    0.000000
      2          8           0        0.070513    0.351844    0.000000
      3          1           0       -0.987187    1.871187    0.000000
 ---------------------------------------------------------------------
 Rotational constants (GHZ):         689.5111705          38.6836100          36.6286355
 Standard basis: 6-31G(d,p) (6D, 7F)
 There are    26 symmetry adapted cartesian basis functions of A'  symmetry.
 There are     9 symmetry adapted cartesian basis functions of A"  symmetry.
 There are    26 symmetry adapted basis functions of A'  symmetry.
 There are     9 symmetry adapted basis functions of A"  symmetry.
    35 basis functions,    63 primitive gaussians,    35 cartesian basis functions
     8 alpha electrons        7 beta electrons
       nuclear repulsion energy        25.8208857505 Hartrees.
 NAtoms=    3 NActive=    3 NUniq=    3 SFac= 1.00D+00 NAtFMM=   60 NAOKFM=F Big=F
 Integral buffers will be    131072 words long.
 Raffenetti 2 integral format.
 Two-electron integral symmetry is turned on.
 One-electron integrals computed using PRISM.
 NBasis=    35 RedAO= T EigKep=  7.80D-03  NBF=    26     9
 NBsUse=    35 1.00D-06 EigRej= -1.00D+00 NBFU=    26     9
 Initial guess from the checkpoint file:  "Z:\Desktop\0620\CO(1)H(1).chk"
 B after Tr=     0.000000    0.000000    0.000000
         Rot=    0.997697    0.000000    0.000000   -0.067824 Ang=  -7.78 deg.
 Initial guess orbital symmetries:
 Alpha Orbitals:
       Occupied  (A') (A') (A') (A') (A') (A") (A') (A')
       Virtual   (A") (A') (A') (A') (A") (A') (A') (A') (A') (A")
                 (A') (A') (A') (A") (A') (A") (A") (A') (A") (A')
                 (A') (A') (A") (A') (A') (A') (A')
 Beta  Orbitals:
       Occupied  (A') (A') (A') (A') (A') (A") (A')
       Virtual   (A') (A") (A') (A') (A") (A') (A') (A') (A') (A')
                 (A") (A') (A') (A") (A') (A') (A") (A') (A") (A")
                 (A') (A') (A') (A") (A') (A') (A') (A')
 Initial guess <Sx>= 0.0000 <Sy>= 0.0000 <Sz>= 0.5000 <S**2>= 0.7510 S= 0.5005
 ExpMin= 1.61D-01 ExpMax= 5.48D+03 ExpMxC= 8.25D+02 IAcc=3 IRadAn=         5 AccDes= 0.00D+00
 Harris functional with IExCor=  402 and IRadAn=       5 diagonalized for initial guess.
 HarFok:  IExCor=  402 AccDes= 0.00D+00 IRadAn=         5 IDoV= 1 UseB2=F ITyADJ=14
 ICtDFT=  3500011 ScaDFX=  1.000000  1.000000  1.000000  1.000000
 FoFCou: FMM=F IPFlag=           0 FMFlag=      100000 FMFlg1=           0
         NFxFlg=           0 DoJE=T BraDBF=F KetDBF=T FulRan=T
         wScrn=  0.000000 ICntrl=       500 IOpCl=  0 I1Cent=   200000004 NGrid=           0
         NMat0=    1 NMatS0=      1 NMatT0=    0 NMatD0=    1 NMtDS0=    0 NMtDT0=    0
 Petite list used in FoFCou.
 Keep R1 and R2 ints in memory in symmetry-blocked form, NReq=1078317.
 Requested convergence on RMS density matrix=1.00D-08 within 128 cycles.
 Requested convergence on MAX density matrix=1.00D-06.
 Requested convergence on             energy=1.00D-06.
 No special actions if energy rises.
 Integral accuracy reduced to 1.0D-05 until final iterations.
 Initial convergence to 1.0D-05 achieved.  Increase integral accuracy.
 SCF Done:  E(UB3LYP) =  -113.799354325     A.U. after   14 cycles
            NFock= 14  Conv=0.19D-08     -V/T= 2.0078
 <Sx>= 0.0000 <Sy>= 0.0000 <Sz>= 0.5000 <S**2>= 0.7506 S= 0.5003
 <L.S>= 0.000000000000E+00
 Annihilation of the first spin contaminant:
 S**2 before annihilation     0.7506,   after     0.7500
 Calling FoFJK, ICntrl=      2127 FMM=F ISym2X=1 I1Cent= 0 IOpClX= 1 NMat=1 NMatS=1 NMatT=0.
 ***** Axes restored to original set *****
 -------------------------------------------------------------------
 Center     Atomic                   Forces (Hartrees/Bohr)
 Number     Number              X              Y              Z
 -------------------------------------------------------------------
      1        6          -0.016779875    0.005446341   -0.004876333
      2        8          -0.000314553   -0.009918161    0.008880137
      3        1           0.017094427    0.004471820   -0.004003804
 -------------------------------------------------------------------
 Cartesian Forces:  Max     0.017094427 RMS     0.009664242

 GradGradGradGradGradGradGradGradGradGradGradGradGradGradGradGradGradGrad
 Berny optimization.
 Using GEDIIS/GDIIS optimizer.
 FormGI is forming the generalized inverse of G from B-inverse, IUseBI=4.
 Internal  Forces:  Max     0.014134504 RMS     0.011651281
 Search for a local minimum.
 Step number   3 out of a maximum of   20
 All quantities printed in internal units (Hartrees-Bohrs-Radians)
 Mixed Optimization -- RFO/linear search
 Update second derivatives using D2CorX and points    2    3
 The second derivative matrix:
                          R1        R2        A1        A2
           R1           1.30097
           R2           0.01638   0.05984
           A1          -0.00529   0.00450   0.00251
           A2          -0.00327   0.00291   0.00011   0.00236
 ITU=  0  1  0
 Use linear search instead of GDIIS.
 Linear search step of   1.200 exceeds DXMaxT=   0.505 scaled by   0.841
 Quartic linear search produced a step of  1.68179.
 Iteration  1 RMS(Cart)=  0.15197790 RMS(Int)=  0.34468661
 Iteration  2 RMS(Cart)=  0.14446490 RMS(Int)=  0.21232102
 Iteration  3 RMS(Cart)=  0.07440099 RMS(Int)=  0.11151964
 Iteration  4 RMS(Cart)=  0.08065667 RMS(Int)=  0.01194051
 Iteration  5 RMS(Cart)=  0.00935270 RMS(Int)=  0.00330647
 Iteration  6 RMS(Cart)=  0.00000317 RMS(Int)=  0.00330640
 Iteration  7 RMS(Cart)=  0.00000000 RMS(Int)=  0.00330640
 ClnCor:  largest displacement from symmetrization is 5.38D-15 for atom     3.
 Variable       Old X    -DE/DX   Delta X   Delta X   Delta X     New X
                                 (Linear)    (Quad)   (Total)
    R1        2.14074   0.01413  -0.05947   0.00000  -0.05946   2.08128
    R2        3.49836   0.01350   0.82871   0.00000   0.82871   4.32707
    A1        2.68218  -0.00976  -0.42555   0.00000  -0.42114   2.26104
    A2        2.72882  -0.00811  -0.38319   0.00000  -0.38812   2.34070
         Item               Value     Threshold  Converged?
 Maximum Force            0.014135     0.000450     NO 
 RMS     Force            0.011651     0.000300     NO 
 Maximum Displacement     0.358568     0.001800     NO 
 RMS     Displacement     0.365360     0.001200     NO 
 Predicted change in Energy=-2.142885D-03
 GradGradGradGradGradGradGradGradGradGradGradGradGradGradGradGradGradGrad

                          Input orientation:                          
 ---------------------------------------------------------------------
 Center     Atomic      Atomic             Coordinates (Angstroms)
 Number     Number       Type             X           Y           Z
 ---------------------------------------------------------------------
      1          6           0       -4.843397    0.831832   -0.154820
      2          8           0       -4.010287    0.295142    0.325701
      3          1           0       -1.904741    0.965573   -0.274564
 ---------------------------------------------------------------------
                    Distance matrix (angstroms):
                    1          2          3
     1  C    0.000000
     2  O    1.101367   0.000000
     3  H    2.944134   2.289786   0.000000
 Stoichiometry    CHO(2)
 Framework group  CS[SG(CHO)]
 Deg. of freedom     3
 Full point group                 CS      NOp   2
 Largest Abelian subgroup         CS      NOp   2
 Largest concise Abelian subgroup C1      NOp   1
                         Standard orientation:                         
 ---------------------------------------------------------------------
 Center     Atomic      Atomic             Coordinates (Angstroms)
 Number     Number       Type             X           Y           Z
 ---------------------------------------------------------------------
      1          6           0        0.137192   -0.727761    0.000000
      2          8           0        0.137192    0.373606    0.000000
      3          1           0       -1.920690    1.377719    0.000000
 ---------------------------------------------------------------------
 Rotational constants (GHZ):         171.1568469          43.5537643          34.7189406
 Standard basis: 6-31G(d,p) (6D, 7F)
 There are    26 symmetry adapted cartesian basis functions of A'  symmetry.
 There are     9 symmetry adapted cartesian basis functions of A"  symmetry.
 There are    26 symmetry adapted basis functions of A'  symmetry.
 There are     9 symmetry adapted basis functions of A"  symmetry.
    35 basis functions,    63 primitive gaussians,    35 cartesian basis functions
     8 alpha electrons        7 beta electrons
       nuclear repulsion energy        25.9899712889 Hartrees.
 NAtoms=    3 NActive=    3 NUniq=    3 SFac= 1.00D+00 NAtFMM=   60 NAOKFM=F Big=F
 Integral buffers will be    131072 words long.
 Raffenetti 2 integral format.
 Two-electron integral symmetry is turned on.
 One-electron integrals computed using PRISM.
 NBasis=    35 RedAO= T EigKep=  7.22D-03  NBF=    26     9
 NBsUse=    35 1.00D-06 EigRej= -1.00D+00 NBFU=    26     9
 Initial guess from the checkpoint file:  "Z:\Desktop\0620\CO(1)H(1).chk"
 B after Tr=     0.000000    0.000000    0.000000
         Rot=    0.991693    0.000000    0.000000   -0.128628 Ang= -14.78 deg.
 Initial guess orbital symmetries:
 Alpha Orbitals:
       Occupied  (A') (A') (A') (A') (A') (A") (A') (A')
       Virtual   (A") (A') (A') (A') (A") (A') (A') (A') (A') (A")
                 (A') (A') (A') (A") (A') (A") (A') (A") (A') (A")
                 (A') (A') (A") (A') (A') (A') (A')
 Beta  Orbitals:
       Occupied  (A') (A') (A') (A') (A') (A") (A')
       Virtual   (A') (A") (A') (A') (A") (A') (A') (A') (A') (A')
                 (A") (A') (A') (A') (A") (A') (A") (A') (A") (A')
                 (A") (A') (A') (A") (A') (A') (A') (A')
 Initial guess <Sx>= 0.0000 <Sy>= 0.0000 <Sz>= 0.5000 <S**2>= 0.7506 S= 0.5003
 ExpMin= 1.61D-01 ExpMax= 5.48D+03 ExpMxC= 8.25D+02 IAcc=3 IRadAn=         5 AccDes= 0.00D+00
 Harris functional with IExCor=  402 and IRadAn=       5 diagonalized for initial guess.
 HarFok:  IExCor=  402 AccDes= 0.00D+00 IRadAn=         5 IDoV= 1 UseB2=F ITyADJ=14
 ICtDFT=  3500011 ScaDFX=  1.000000  1.000000  1.000000  1.000000
 FoFCou: FMM=F IPFlag=           0 FMFlag=      100000 FMFlg1=           0
         NFxFlg=           0 DoJE=T BraDBF=F KetDBF=T FulRan=T
         wScrn=  0.000000 ICntrl=       500 IOpCl=  0 I1Cent=   200000004 NGrid=           0
         NMat0=    1 NMatS0=      1 NMatT0=    0 NMatD0=    1 NMtDS0=    0 NMtDT0=    0
 Petite list used in FoFCou.
 Keep R1 and R2 ints in memory in symmetry-blocked form, NReq=1078317.
 Requested convergence on RMS density matrix=1.00D-08 within 128 cycles.
 Requested convergence on MAX density matrix=1.00D-06.
 Requested convergence on             energy=1.00D-06.
 No special actions if energy rises.
 Integral accuracy reduced to 1.0D-05 until final iterations.
 Initial convergence to 1.0D-05 achieved.  Increase integral accuracy.
 SCF Done:  E(UB3LYP) =  -113.804220926     A.U. after   13 cycles
            NFock= 13  Conv=0.52D-08     -V/T= 2.0067
 <Sx>= 0.0000 <Sy>= 0.0000 <Sz>= 0.5000 <S**2>= 0.7501 S= 0.5001
 <L.S>= 0.000000000000E+00
 Annihilation of the first spin contaminant:
 S**2 before annihilation     0.7501,   after     0.7500
 Calling FoFJK, ICntrl=      2127 FMM=F ISym2X=1 I1Cent= 0 IOpClX= 1 NMat=1 NMatS=1 NMatT=0.
 ***** Axes restored to original set *****
 -------------------------------------------------------------------
 Center     Atomic                   Forces (Hartrees/Bohr)
 Number     Number              X              Y              Z
 -------------------------------------------------------------------
      1        6          -0.077087613    0.048857900   -0.043744486
      2        8           0.072462031   -0.050013974    0.044779567
      3        1           0.004625582    0.001156074   -0.001035081
 -------------------------------------------------------------------
 Cartesian Forces:  Max     0.077087613 RMS     0.047169118

 GradGradGradGradGradGradGradGradGradGradGradGradGradGradGradGradGradGrad
 Berny optimization.
 Using GEDIIS/GDIIS optimizer.
 FormGI is forming the generalized inverse of G from B-inverse, IUseBI=4.
 Internal  Forces:  Max     0.092881656 RMS     0.048286622
 Search for a local minimum.
 Step number   4 out of a maximum of   20
 All quantities printed in internal units (Hartrees-Bohrs-Radians)
 Mixed Optimization -- RFO/linear search
 Update second derivatives using D2CorX and points    3    4
 The second derivative matrix:
                          R1        R2        A1        A2
           R1           1.59593
           R2          -0.01930   0.03585
           A1          -0.06631   0.01892   0.01338
           A2          -0.01087   0.00377   0.00170   0.00256
 ITU=  0  0  1  0
 Use linear search instead of GDIIS.
     Eigenvalues ---    0.00239   0.01734   1.51600
 RFO step:  Lambda=-6.65683430D-03 EMin= 2.38694248D-03
 Skip linear search -- no minimum in search direction.
 Iteration  1 RMS(Cart)=  0.05753992 RMS(Int)=  0.00652260
 Iteration  2 RMS(Cart)=  0.00156725 RMS(Int)=  0.00630047
 Iteration  3 RMS(Cart)=  0.00000163 RMS(Int)=  0.00630051
 Iteration  4 RMS(Cart)=  0.00000000 RMS(Int)=  0.00630051
 ClnCor:  largest displacement from symmetrization is 5.98D-16 for atom     3.
 Variable       Old X    -DE/DX   Delta X   Delta X   Delta X     New X
                                 (Linear)    (Quad)   (Total)
    R1        2.08128   0.09288   0.00000   0.06104   0.06103   2.14231
    R2        4.32707  -0.00793   0.00000   0.12311   0.12311   4.45018
    A1        2.26104  -0.02309   0.00000  -0.05462  -0.06302   2.19803
    A2        2.34070  -0.01017   0.00000  -0.06904  -0.05964   2.28106
         Item               Value     Threshold  Converged?
 Maximum Force            0.092882     0.000450     NO 
 RMS     Force            0.048287     0.000300     NO 
 Maximum Displacement     0.059403     0.001800     NO 
 RMS     Displacement     0.057485     0.001200     NO 
 Predicted change in Energy=-3.497846D-03
 GradGradGradGradGradGradGradGradGradGradGradGradGradGradGradGradGradGrad

                          Input orientation:                          
 ---------------------------------------------------------------------
 Center     Atomic      Atomic             Coordinates (Angstroms)
 Number     Number       Type             X           Y           Z
 ---------------------------------------------------------------------
      1          6           0       -4.847281    0.849525   -0.170661
      2          8           0       -4.030643    0.263707    0.353846
      3          1           0       -1.880502    0.979316   -0.286868
 ---------------------------------------------------------------------
                    Distance matrix (angstroms):
                    1          2          3
     1  C    0.000000
     2  O    1.133662   0.000000
     3  H    2.971890   2.354935   0.000000
 Stoichiometry    CHO(2)
 Framework group  CS[SG(CHO)]
 Deg. of freedom     3
 Full point group                 CS      NOp   2
 Largest Abelian subgroup         CS      NOp   2
 Largest concise Abelian subgroup C1      NOp   1
                         Standard orientation:                         
 ---------------------------------------------------------------------
 Center     Atomic      Atomic             Coordinates (Angstroms)
 Number     Number       Type             X           Y           Z
 ---------------------------------------------------------------------
      1          6           0        0.145551   -0.739039    0.000000
      2          8           0        0.145551    0.394622    0.000000
      3          1           0       -2.037718    1.277260    0.000000
 ---------------------------------------------------------------------
 Rotational constants (GHZ):         146.0909959          42.7878143          33.0948421
 Standard basis: 6-31G(d,p) (6D, 7F)
 There are    26 symmetry adapted cartesian basis functions of A'  symmetry.
 There are     9 symmetry adapted cartesian basis functions of A"  symmetry.
 There are    26 symmetry adapted basis functions of A'  symmetry.
 There are     9 symmetry adapted basis functions of A"  symmetry.
    35 basis functions,    63 primitive gaussians,    35 cartesian basis functions
     8 alpha electrons        7 beta electrons
       nuclear repulsion energy        25.2717678188 Hartrees.
 NAtoms=    3 NActive=    3 NUniq=    3 SFac= 1.00D+00 NAtFMM=   60 NAOKFM=F Big=F
 Integral buffers will be    131072 words long.
 Raffenetti 2 integral format.
 Two-electron integral symmetry is turned on.
 One-electron integrals computed using PRISM.
 NBasis=    35 RedAO= T EigKep=  7.83D-03  NBF=    26     9
 NBsUse=    35 1.00D-06 EigRej= -1.00D+00 NBFU=    26     9
 Initial guess from the checkpoint file:  "Z:\Desktop\0620\CO(1)H(1).chk"
 B after Tr=     0.000000    0.000000    0.000000
         Rot=    0.999832    0.000000    0.000000   -0.018306 Ang=  -2.10 deg.
 Initial guess orbital symmetries:
 Alpha Orbitals:
       Occupied  (A') (A') (A') (A') (A') (A") (A') (A')
       Virtual   (A') (A") (A') (A') (A") (A') (A') (A') (A') (A")
                 (A') (A') (A") (A') (A') (A") (A') (A") (A') (A")
                 (A') (A') (A") (A') (A') (A') (A')
 Beta  Orbitals:
       Occupied  (A') (A') (A') (A') (A') (A") (A')
       Virtual   (A') (A") (A') (A') (A") (A') (A') (A') (A') (A')
                 (A") (A') (A') (A") (A') (A") (A') (A') (A") (A')
                 (A") (A') (A') (A") (A') (A') (A') (A')
 Initial guess <Sx>= 0.0000 <Sy>= 0.0000 <Sz>= 0.5000 <S**2>= 0.7501 S= 0.5001
 ExpMin= 1.61D-01 ExpMax= 5.48D+03 ExpMxC= 8.25D+02 IAcc=3 IRadAn=         5 AccDes= 0.00D+00
 Harris functional with IExCor=  402 and IRadAn=       5 diagonalized for initial guess.
 HarFok:  IExCor=  402 AccDes= 0.00D+00 IRadAn=         5 IDoV= 1 UseB2=F ITyADJ=14
 ICtDFT=  3500011 ScaDFX=  1.000000  1.000000  1.000000  1.000000
 FoFCou: FMM=F IPFlag=           0 FMFlag=      100000 FMFlg1=           0
         NFxFlg=           0 DoJE=T BraDBF=F KetDBF=T FulRan=T
         wScrn=  0.000000 ICntrl=       500 IOpCl=  0 I1Cent=   200000004 NGrid=           0
         NMat0=    1 NMatS0=      1 NMatT0=    0 NMatD0=    1 NMtDS0=    0 NMtDT0=    0
 Petite list used in FoFCou.
 Keep R1 and R2 ints in memory in symmetry-blocked form, NReq=1078317.
 Requested convergence on RMS density matrix=1.00D-08 within 128 cycles.
 Requested convergence on MAX density matrix=1.00D-06.
 Requested convergence on             energy=1.00D-06.
 No special actions if energy rises.
 Integral accuracy reduced to 1.0D-05 until final iterations.
 Initial convergence to 1.0D-05 achieved.  Increase integral accuracy.
 SCF Done:  E(UB3LYP) =  -113.807983283     A.U. after   12 cycles
            NFock= 12  Conv=0.30D-08     -V/T= 2.0083
 <Sx>= 0.0000 <Sy>= 0.0000 <Sz>= 0.5000 <S**2>= 0.7501 S= 0.5000
 <L.S>= 0.000000000000E+00
 Annihilation of the first spin contaminant:
 S**2 before annihilation     0.7501,   after     0.7500
 Calling FoFJK, ICntrl=      2127 FMM=F ISym2X=1 I1Cent= 0 IOpClX= 1 NMat=1 NMatS=1 NMatT=0.
 ***** Axes restored to original set *****
 -------------------------------------------------------------------
 Center     Atomic                   Forces (Hartrees/Bohr)
 Number     Number              X              Y              Z
 -------------------------------------------------------------------
      1        6          -0.009087571    0.005629946   -0.005040722
      2        8           0.005334295   -0.006542269    0.005857562
      3        1           0.003753277    0.000912323   -0.000816840
 -------------------------------------------------------------------
 Cartesian Forces:  Max     0.009087571 RMS     0.005383543

 GradGradGradGradGradGradGradGradGradGradGradGradGradGradGradGradGradGrad
 Berny optimization.
 Using GEDIIS/GDIIS optimizer.
 FormGI is forming the generalized inverse of G from B-inverse, IUseBI=4.
 Internal  Forces:  Max     0.010472581 RMS     0.005612571
 Search for a local minimum.
 Step number   5 out of a maximum of   20
 All quantities printed in internal units (Hartrees-Bohrs-Radians)
 Mixed Optimization -- RFO/linear search
 Update second derivatives using D2CorX and points    4    5
 DE= -3.76D-03 DEPred=-3.50D-03 R= 1.08D+00
 TightC=F SS=  1.41D+00  RLast= 1.63D-01 DXNew= 8.4853D-01 4.8753D-01
 Trust test= 1.08D+00 RLast= 1.63D-01 DXMaxT set to 5.05D-01
 The second derivative matrix:
                          R1        R2        A1        A2
           R1           1.26862
           R2          -0.18947   0.05216
           A1          -0.31027   0.05333   0.07967
           A2          -0.14692   0.02081   0.03537   0.01954
 ITU=  1  0  0  1  0
 Use linear search instead of GDIIS.
     Eigenvalues ---    0.00246   0.01621   1.38605
 RFO step:  Lambda=-1.71186441D-03 EMin= 2.46396580D-03
 Quartic linear search produced a step of  0.25124.
 Iteration  1 RMS(Cart)=  0.08082094 RMS(Int)=  0.18371567
 Iteration  2 RMS(Cart)=  0.04132611 RMS(Int)=  0.17621443
 Iteration  3 RMS(Cart)=  0.00924262 RMS(Int)=  0.17759366
 Iteration  4 RMS(Cart)=  0.00527227 RMS(Int)=  0.17853861
 Iteration  5 RMS(Cart)=  0.00244985 RMS(Int)=  0.17901680
 Iteration  6 RMS(Cart)=  0.00113890 RMS(Int)=  0.17924764
 Iteration  7 RMS(Cart)=  0.00052989 RMS(Int)=  0.17935688
 Iteration  8 RMS(Cart)=  0.00024662 RMS(Int)=  0.17940812
 Iteration  9 RMS(Cart)=  0.00011480 RMS(Int)=  0.17943206
 Iteration 10 RMS(Cart)=  0.00005345 RMS(Int)=  0.17944322
 Iteration 11 RMS(Cart)=  0.00002488 RMS(Int)=  0.17944842
 Iteration 12 RMS(Cart)=  0.00001158 RMS(Int)=  0.17945084
 Iteration 13 RMS(Cart)=  0.00000539 RMS(Int)=  0.17945197
 Iteration 14 RMS(Cart)=  0.00000240 RMS(Int)=  0.17945247
 Iteration 15 RMS(Cart)=  0.00000118 RMS(Int)=  0.17945272
 Iteration 16 RMS(Cart)=  0.00000057 RMS(Int)=  0.17945284
 ClnCor:  largest displacement from symmetrization is 2.23D-15 for atom     3.
 Variable       Old X    -DE/DX   Delta X   Delta X   Delta X     New X
                                 (Linear)    (Quad)   (Total)
    R1        2.14231   0.01047   0.01533   0.01620   0.03182   2.17413
    R2        4.45018   0.00182   0.03093   0.27989   0.31069   4.76087
    A1        2.19803  -0.00359  -0.01583  -0.20922  -0.04659   2.15144
    A2        2.28106  -0.00037  -0.01498   0.28153  -0.04484   2.23622
         Item               Value     Threshold  Converged?
 Maximum Force            0.010473     0.000450     NO 
 RMS     Force            0.005613     0.000300     NO 
 Maximum Displacement     0.169895     0.001800     NO 
 RMS     Displacement     0.116418     0.001200     NO 
 Predicted change in Energy=-7.187879D-06
 GradGradGradGradGradGradGradGradGradGradGradGradGradGradGradGradGradGrad

                          Input orientation:                          
 ---------------------------------------------------------------------
 Center     Atomic      Atomic             Coordinates (Angstroms)
 Number     Number       Type             X           Y           Z
 ---------------------------------------------------------------------
      1          6           0       -4.879237    0.856189   -0.176628
      2          8           0       -4.088591    0.233518    0.380875
      3          1           0       -1.790597    1.002840   -0.307931
 ---------------------------------------------------------------------
                    Distance matrix (angstroms):
                    1          2          3
     1  C    0.000000
     2  O    1.150499   0.000000
     3  H    3.094906   2.519343   0.000000
 Stoichiometry    CHO(2)
 Framework group  CS[SG(CHO)]
 Deg. of freedom     3
 Full point group                 CS      NOp   2
 Largest Abelian subgroup         CS      NOp   2
 Largest concise Abelian subgroup C1      NOp   1
                         Standard orientation:                         
 ---------------------------------------------------------------------
 Center     Atomic      Atomic             Coordinates (Angstroms)
 Number     Number       Type             X           Y           Z
 ---------------------------------------------------------------------
      1          6           0        0.158601   -0.745571    0.000000
      2          8           0        0.158601    0.404928    0.000000
      3          1           0       -2.220415    1.234006    0.000000
 ---------------------------------------------------------------------
 Rotational constants (GHZ):         123.1852336          41.4953362          31.0395616
 Standard basis: 6-31G(d,p) (6D, 7F)
 There are    26 symmetry adapted cartesian basis functions of A'  symmetry.
 There are     9 symmetry adapted cartesian basis functions of A"  symmetry.
 There are    26 symmetry adapted basis functions of A'  symmetry.
 There are     9 symmetry adapted basis functions of A"  symmetry.
    35 basis functions,    63 primitive gaussians,    35 cartesian basis functions
     8 alpha electrons        7 beta electrons
       nuclear repulsion energy        24.7840808890 Hartrees.
 NAtoms=    3 NActive=    3 NUniq=    3 SFac= 1.00D+00 NAtFMM=   60 NAOKFM=F Big=F
 Integral buffers will be    131072 words long.
 Raffenetti 2 integral format.
 Two-electron integral symmetry is turned on.
 One-electron integrals computed using PRISM.
 NBasis=    35 RedAO= T EigKep=  8.16D-03  NBF=    26     9
 NBsUse=    35 1.00D-06 EigRej= -1.00D+00 NBFU=    26     9
 Initial guess from the checkpoint file:  "Z:\Desktop\0620\CO(1)H(1).chk"
 B after Tr=     0.000000    0.000000    0.000000
         Rot=    0.999878    0.000000    0.000000   -0.015639 Ang=  -1.79 deg.
 Initial guess orbital symmetries:
 Alpha Orbitals:
       Occupied  (A') (A') (A') (A') (A') (A") (A') (A')
       Virtual   (A') (A") (A') (A') (A") (A') (A') (A') (A') (A")
                 (A') (A') (A") (A') (A') (A") (A') (A") (A") (A')
                 (A') (A') (A") (A') (A') (A') (A')
 Beta  Orbitals:
       Occupied  (A') (A') (A') (A') (A') (A") (A')
       Virtual   (A') (A") (A') (A') (A") (A') (A') (A') (A') (A')
                 (A") (A') (A') (A") (A') (A") (A') (A") (A') (A")
                 (A') (A') (A') (A") (A') (A') (A') (A')
 Initial guess <Sx>= 0.0000 <Sy>= 0.0000 <Sz>= 0.5000 <S**2>= 0.7501 S= 0.5000
 ExpMin= 1.61D-01 ExpMax= 5.48D+03 ExpMxC= 8.25D+02 IAcc=3 IRadAn=         5 AccDes= 0.00D+00
 Harris functional with IExCor=  402 and IRadAn=       5 diagonalized for initial guess.
 HarFok:  IExCor=  402 AccDes= 0.00D+00 IRadAn=         5 IDoV= 1 UseB2=F ITyADJ=14
 ICtDFT=  3500011 ScaDFX=  1.000000  1.000000  1.000000  1.000000
 FoFCou: FMM=F IPFlag=           0 FMFlag=      100000 FMFlg1=           0
         NFxFlg=           0 DoJE=T BraDBF=F KetDBF=T FulRan=T
         wScrn=  0.000000 ICntrl=       500 IOpCl=  0 I1Cent=   200000004 NGrid=           0
         NMat0=    1 NMatS0=      1 NMatT0=    0 NMatD0=    1 NMtDS0=    0 NMtDT0=    0
 Petite list used in FoFCou.
 Keep R1 and R2 ints in memory in symmetry-blocked form, NReq=1078317.
 Requested convergence on RMS density matrix=1.00D-08 within 128 cycles.
 Requested convergence on MAX density matrix=1.00D-06.
 Requested convergence on             energy=1.00D-06.
 No special actions if energy rises.
 Integral accuracy reduced to 1.0D-05 until final iterations.
 Initial convergence to 1.0D-05 achieved.  Increase integral accuracy.
 SCF Done:  E(UB3LYP) =  -113.808567573     A.U. after   12 cycles
            NFock= 12  Conv=0.87D-08     -V/T= 2.0090
 <Sx>= 0.0000 <Sy>= 0.0000 <Sz>= 0.5000 <S**2>= 0.7501 S= 0.5000
 <L.S>= 0.000000000000E+00
 Annihilation of the first spin contaminant:
 S**2 before annihilation     0.7501,   after     0.7500
 Calling FoFJK, ICntrl=      2127 FMM=F ISym2X=1 I1Cent= 0 IOpClX= 1 NMat=1 NMatS=1 NMatT=0.
 ***** Axes restored to original set *****
 -------------------------------------------------------------------
 Center     Atomic                   Forces (Hartrees/Bohr)
 Number     Number              X              Y              Z
 -------------------------------------------------------------------
      1        6           0.018763774   -0.015408483    0.013795848
      2        8          -0.020879859    0.014916697   -0.013355532
      3        1           0.002116086    0.000491786   -0.000440316
 -------------------------------------------------------------------
 Cartesian Forces:  Max     0.020879859 RMS     0.013422974

 GradGradGradGradGradGradGradGradGradGradGradGradGradGradGradGradGradGrad
 Berny optimization.
 Using GEDIIS/GDIIS optimizer.
 FormGI is forming the generalized inverse of G from B-inverse, IUseBI=4.
 Internal  Forces:  Max     0.027283946 RMS     0.013902808
 Search for a local minimum.
 Step number   6 out of a maximum of   20
 All quantities printed in internal units (Hartrees-Bohrs-Radians)
 Mixed Optimization -- RFO/linear search
 Update second derivatives using D2CorX and points    4    5    6
 DE= -5.84D-04 DEPred=-7.19D-06 R= 8.13D+01
 TightC=F SS=  1.41D+00  RLast= 3.19D-01 DXNew= 8.4853D-01 9.5681D-01
 Trust test= 8.13D+01 RLast= 3.19D-01 DXMaxT set to 8.49D-01
 The second derivative matrix:
                          R1        R2        A1        A2
           R1           3.18758
           R2          -0.34435   0.04673
           A1          -0.72607   0.08200   0.16842
           A2          -0.21163   0.02895   0.05005   0.01994
 ITU=  1  1  0  0  1
 Use linear search instead of GDIIS.
     Eigenvalues ---    0.00110   0.01132   3.39076
 RFO step:  Lambda=-1.33935539D-03 EMin= 1.10167333D-03
 Quartic linear search produced a step of -0.02616.
 Iteration  1 RMS(Cart)=  0.12412704 RMS(Int)=  0.20003817
 Iteration  2 RMS(Cart)=  0.07447990 RMS(Int)=  0.13256823
 Iteration  3 RMS(Cart)=  0.02370918 RMS(Int)=  0.12438783
 Iteration  4 RMS(Cart)=  0.01224262 RMS(Int)=  0.12290870
 Iteration  5 RMS(Cart)=  0.00079080 RMS(Int)=  0.12285151
 Iteration  6 RMS(Cart)=  0.00000301 RMS(Int)=  0.12285172
 Iteration  7 RMS(Cart)=  0.00000001 RMS(Int)=  0.12285172
 ClnCor:  largest displacement from symmetrization is 1.00D-14 for atom     3.
 Variable       Old X    -DE/DX   Delta X   Delta X   Delta X     New X
                                 (Linear)    (Quad)   (Total)
    R1        2.17413  -0.02728  -0.00083  -0.02766  -0.02902   2.14511
    R2        4.76087   0.00337  -0.00813   0.44074   0.43283   5.19370
    A1        2.15144   0.00413   0.00122  -0.15068  -0.31168   1.83976
    A2        2.23622   0.00059   0.00117  -0.49451  -0.30879   1.92742
         Item               Value     Threshold  Converged?
 Maximum Force            0.027284     0.000450     NO 
 RMS     Force            0.013903     0.000300     NO 
 Maximum Displacement     0.264080     0.001800     NO 
 RMS     Displacement     0.220654     0.001200     NO 
 Predicted change in Energy=-1.836873D-04
 GradGradGradGradGradGradGradGradGradGradGradGradGradGradGradGradGradGrad

                          Input orientation:                          
 ---------------------------------------------------------------------
 Center     Atomic      Atomic             Coordinates (Angstroms)
 Number     Number       Type             X           Y           Z
 ---------------------------------------------------------------------
      1          6           0       -4.763938    0.891345   -0.208104
      2          8           0       -4.228337    0.145703    0.459500
      3          1           0       -1.766150    1.055500   -0.355079
 ---------------------------------------------------------------------
                    Distance matrix (angstroms):
                    1          2          3
     1  C    0.000000
     2  O    1.135142   0.000000
     3  H    3.005875   2.748387   0.000000
 Stoichiometry    CHO(2)
 Framework group  CS[SG(CHO)]
 Deg. of freedom     3
 Full point group                 CS      NOp   2
 Largest Abelian subgroup         CS      NOp   2
 Largest concise Abelian subgroup C1      NOp   1
                         Standard orientation:                         
 ---------------------------------------------------------------------
 Center     Atomic      Atomic             Coordinates (Angstroms)
 Number     Number       Type             X           Y           Z
 ---------------------------------------------------------------------
      1          6           0        0.183138   -0.686756    0.000000
      2          8           0        0.183138    0.448386    0.000000
      3          1           0       -2.563933    0.533443    0.000000
 ---------------------------------------------------------------------
 Rotational constants (GHZ):          78.1001706          50.4235344          30.6409361
 Standard basis: 6-31G(d,p) (6D, 7F)
 There are    26 symmetry adapted cartesian basis functions of A'  symmetry.
 There are     9 symmetry adapted cartesian basis functions of A"  symmetry.
 There are    26 symmetry adapted basis functions of A'  symmetry.
 There are     9 symmetry adapted basis functions of A"  symmetry.
    35 basis functions,    63 primitive gaussians,    35 cartesian basis functions
     8 alpha electrons        7 beta electrons
       nuclear repulsion energy        24.9731197215 Hartrees.
 NAtoms=    3 NActive=    3 NUniq=    3 SFac= 1.00D+00 NAtFMM=   60 NAOKFM=F Big=F
 Integral buffers will be    131072 words long.
 Raffenetti 2 integral format.
 Two-electron integral symmetry is turned on.
 One-electron integrals computed using PRISM.
 NBasis=    35 RedAO= T EigKep=  7.81D-03  NBF=    26     9
 NBsUse=    35 1.00D-06 EigRej= -1.00D+00 NBFU=    26     9
 Initial guess from the checkpoint file:  "Z:\Desktop\0620\CO(1)H(1).chk"
 B after Tr=     0.000000    0.000000    0.000000
         Rot=    0.995688    0.000000    0.000000   -0.092769 Ang= -10.65 deg.
 Initial guess orbital symmetries:
 Alpha Orbitals:
       Occupied  (A') (A') (A') (A') (A') (A") (A') (A')
       Virtual   (A') (A") (A') (A') (A") (A') (A') (A') (A') (A")
                 (A') (A') (A") (A') (A") (A') (A') (A") (A") (A')
                 (A') (A') (A") (A') (A') (A') (A')
 Beta  Orbitals:
       Occupied  (A') (A') (A') (A') (A') (A") (A')
       Virtual   (A') (A") (A') (A') (A") (A') (A') (A') (A') (A')
                 (A") (A') (A') (A") (A') (A") (A') (A") (A') (A")
                 (A') (A') (A') (A") (A') (A') (A') (A')
 Initial guess <Sx>= 0.0000 <Sy>= 0.0000 <Sz>= 0.5000 <S**2>= 0.7501 S= 0.5000
 ExpMin= 1.61D-01 ExpMax= 5.48D+03 ExpMxC= 8.25D+02 IAcc=3 IRadAn=         5 AccDes= 0.00D+00
 Harris functional with IExCor=  402 and IRadAn=       5 diagonalized for initial guess.
 HarFok:  IExCor=  402 AccDes= 0.00D+00 IRadAn=         5 IDoV= 1 UseB2=F ITyADJ=14
 ICtDFT=  3500011 ScaDFX=  1.000000  1.000000  1.000000  1.000000
 FoFCou: FMM=F IPFlag=           0 FMFlag=      100000 FMFlg1=           0
         NFxFlg=           0 DoJE=T BraDBF=F KetDBF=T FulRan=T
         wScrn=  0.000000 ICntrl=       500 IOpCl=  0 I1Cent=   200000004 NGrid=           0
         NMat0=    1 NMatS0=      1 NMatT0=    0 NMatD0=    1 NMtDS0=    0 NMtDT0=    0
 Petite list used in FoFCou.
 Keep R1 and R2 ints in memory in symmetry-blocked form, NReq=1078317.
 Requested convergence on RMS density matrix=1.00D-08 within 128 cycles.
 Requested convergence on MAX density matrix=1.00D-06.
 Requested convergence on             energy=1.00D-06.
 No special actions if energy rises.
 Integral accuracy reduced to 1.0D-05 until final iterations.
 Initial convergence to 1.0D-05 achieved.  Increase integral accuracy.
 SCF Done:  E(UB3LYP) =  -113.809260526     A.U. after   13 cycles
            NFock= 13  Conv=0.65D-08     -V/T= 2.0084
 <Sx>= 0.0000 <Sy>= 0.0000 <Sz>= 0.5000 <S**2>= 0.7500 S= 0.5000
 <L.S>= 0.000000000000E+00
 Annihilation of the first spin contaminant:
 S**2 before annihilation     0.7500,   after     0.7500
 Calling FoFJK, ICntrl=      2127 FMM=F ISym2X=1 I1Cent= 0 IOpClX= 1 NMat=1 NMatS=1 NMatT=0.
 ***** Axes restored to original set *****
 -------------------------------------------------------------------
 Center     Atomic                   Forces (Hartrees/Bohr)
 Number     Number              X              Y              Z
 -------------------------------------------------------------------
      1        6          -0.003766492    0.004472199   -0.004004144
      2        8           0.002426183   -0.004799737    0.004297402
      3        1           0.001340310    0.000327537   -0.000293258
 -------------------------------------------------------------------
 Cartesian Forces:  Max     0.004799737 RMS     0.003326683

 GradGradGradGradGradGradGradGradGradGradGradGradGradGradGradGradGradGrad
 Berny optimization.
 Using GEDIIS/GDIIS optimizer.
 FormGI is forming the generalized inverse of G from B-inverse, IUseBI=4.
 Internal  Forces:  Max     0.007027038 RMS     0.003597430
 Search for a local minimum.
 Step number   7 out of a maximum of   20
 All quantities printed in internal units (Hartrees-Bohrs-Radians)
 Mixed Optimization -- RFO/linear search
 Update second derivatives using D2CorX and points    6    7
 DE= -6.93D-04 DEPred=-1.84D-04 R= 3.77D+00
 TightC=F SS=  1.41D+00  RLast= 6.17D-01 DXNew= 1.4270D+00 1.8510D+00
 Trust test= 3.77D+00 RLast= 6.17D-01 DXMaxT set to 1.43D+00
 The second derivative matrix:
                          R1        R2        A1        A2
           R1           2.89561
           R2          -0.27051   0.03758
           A1          -0.45883   0.05352   0.08440
           A2          -0.07707   0.01761   0.02007   0.01199
 ITU=  1  1  1  0  0
 Use linear search instead of GDIIS.
     Eigenvalues ---    0.00023   0.02911   2.97294
 RFO step:  Lambda=-5.32578251D-04 EMin= 2.31018581D-04
 Quartic linear search produced a step of  0.06029.
 Iteration  1 RMS(Cart)=  0.12365093 RMS(Int)=  0.18626531
 Iteration  2 RMS(Cart)=  0.07198727 RMS(Int)=  0.08261239
 Iteration  3 RMS(Cart)=  0.06754487 RMS(Int)=  0.00205041
 Iteration  4 RMS(Cart)=  0.00009369 RMS(Int)=  0.00205789
 Iteration  5 RMS(Cart)=  0.00000000 RMS(Int)=  0.00205789
 ClnCor:  largest displacement from symmetrization is 1.04D-14 for atom     3.
 Variable       Old X    -DE/DX   Delta X   Delta X   Delta X     New X
                                 (Linear)    (Quad)   (Total)
    R1        2.14511   0.00703  -0.00175   0.01125   0.00948   2.15459
    R2        5.19370   0.00137   0.02610   0.53330   0.55940   5.75310
    A1        1.83976   0.00015  -0.01879  -0.22274  -0.24424   1.59552
    A2        1.92742   0.00069  -0.01862  -0.24111  -0.25663   1.67079
         Item               Value     Threshold  Converged?
 Maximum Force            0.007027     0.000450     NO 
 RMS     Force            0.003597     0.000300     NO 
 Maximum Displacement     0.287231     0.001800     NO 
 RMS     Displacement     0.207960     0.001200     NO 
 Predicted change in Energy=-4.647586D-04
 GradGradGradGradGradGradGradGradGradGradGradGradGradGradGradGradGradGrad

                          Input orientation:                          
 ---------------------------------------------------------------------
 Center     Atomic      Atomic             Coordinates (Angstroms)
 Number     Number       Type             X           Y           Z
 ---------------------------------------------------------------------
      1          6           0       -4.711467    0.896707   -0.212905
      2          8           0       -4.380333    0.083881    0.514852
      3          1           0       -1.666626    1.111960   -0.405630
 ---------------------------------------------------------------------
                    Distance matrix (angstroms):
                    1          2          3
     1  C    0.000000
     2  O    1.140161   0.000000
     3  H    3.058519   3.044411   0.000000
 Stoichiometry    CHO(2)
 Framework group  CS[SG(CHO)]
 Deg. of freedom     3
 Full point group                 CS      NOp   2
 Largest Abelian subgroup         CS      NOp   2
 Largest concise Abelian subgroup C1      NOp   1
                         Standard orientation:                         
 ---------------------------------------------------------------------
 Center     Atomic      Atomic             Coordinates (Angstroms)
 Number     Number       Type             X           Y           Z
 ---------------------------------------------------------------------
      1          6           0        0.199834   -0.648608    0.000000
      2          8           0        0.199834    0.491552    0.000000
      3          1           0       -2.797677   -0.040771    0.000000
 ---------------------------------------------------------------------
 Rotational constants (GHZ):          58.2659175          56.2674162          28.6246154
 Standard basis: 6-31G(d,p) (6D, 7F)
 There are    26 symmetry adapted cartesian basis functions of A'  symmetry.
 There are     9 symmetry adapted cartesian basis functions of A"  symmetry.
 There are    26 symmetry adapted basis functions of A'  symmetry.
 There are     9 symmetry adapted basis functions of A"  symmetry.
    35 basis functions,    63 primitive gaussians,    35 cartesian basis functions
     8 alpha electrons        7 beta electrons
       nuclear repulsion energy        24.7066673793 Hartrees.
 NAtoms=    3 NActive=    3 NUniq=    3 SFac= 1.00D+00 NAtFMM=   60 NAOKFM=F Big=F
 Integral buffers will be    131072 words long.
 Raffenetti 2 integral format.
 Two-electron integral symmetry is turned on.
 One-electron integrals computed using PRISM.
 NBasis=    35 RedAO= T EigKep=  7.88D-03  NBF=    26     9
 NBsUse=    35 1.00D-06 EigRej= -1.00D+00 NBFU=    26     9
 Initial guess from the checkpoint file:  "Z:\Desktop\0620\CO(1)H(1).chk"
 B after Tr=     0.000000    0.000000    0.000000
         Rot=    0.997534    0.000000    0.000000   -0.070182 Ang=  -8.05 deg.
 Initial guess orbital symmetries:
 Alpha Orbitals:
       Occupied  (A') (A') (A') (A') (A') (A") (A') (A')
       Virtual   (A') (A") (A') (A') (A") (A') (A') (A') (A') (A")
                 (A') (A') (A") (A') (A') (A") (A") (A') (A") (A')
                 (A') (A') (A") (A') (A') (A') (A')
 Beta  Orbitals:
       Occupied  (A') (A') (A') (A') (A') (A") (A')
       Virtual   (A') (A") (A') (A') (A") (A') (A') (A') (A') (A')
                 (A") (A') (A') (A") (A') (A") (A') (A") (A') (A")
                 (A') (A') (A') (A") (A') (A') (A') (A')
 Initial guess <Sx>= 0.0000 <Sy>= 0.0000 <Sz>= 0.5000 <S**2>= 0.7500 S= 0.5000
 ExpMin= 1.61D-01 ExpMax= 5.48D+03 ExpMxC= 8.25D+02 IAcc=3 IRadAn=         5 AccDes= 0.00D+00
 Harris functional with IExCor=  402 and IRadAn=       5 diagonalized for initial guess.
 HarFok:  IExCor=  402 AccDes= 0.00D+00 IRadAn=         5 IDoV= 1 UseB2=F ITyADJ=14
 ICtDFT=  3500011 ScaDFX=  1.000000  1.000000  1.000000  1.000000
 FoFCou: FMM=F IPFlag=           0 FMFlag=      100000 FMFlg1=           0
         NFxFlg=           0 DoJE=T BraDBF=F KetDBF=T FulRan=T
         wScrn=  0.000000 ICntrl=       500 IOpCl=  0 I1Cent=   200000004 NGrid=           0
         NMat0=    1 NMatS0=      1 NMatT0=    0 NMatD0=    1 NMtDS0=    0 NMtDT0=    0
 Petite list used in FoFCou.
 Keep R1 and R2 ints in memory in symmetry-blocked form, NReq=1078317.
 Requested convergence on RMS density matrix=1.00D-08 within 128 cycles.
 Requested convergence on MAX density matrix=1.00D-06.
 Requested convergence on             energy=1.00D-06.
 No special actions if energy rises.
 Integral accuracy reduced to 1.0D-05 until final iterations.
 Initial convergence to 1.0D-05 achieved.  Increase integral accuracy.
 SCF Done:  E(UB3LYP) =  -113.809664723     A.U. after   13 cycles
            NFock= 13  Conv=0.35D-08     -V/T= 2.0087
 <Sx>= 0.0000 <Sy>= 0.0000 <Sz>= 0.5000 <S**2>= 0.7500 S= 0.5000
 <L.S>= 0.000000000000E+00
 Annihilation of the first spin contaminant:
 S**2 before annihilation     0.7500,   after     0.7500
 Calling FoFJK, ICntrl=      2127 FMM=F ISym2X=1 I1Cent= 0 IOpClX= 1 NMat=1 NMatS=1 NMatT=0.
 ***** Axes restored to original set *****
 -------------------------------------------------------------------
 Center     Atomic                   Forces (Hartrees/Bohr)
 Number     Number              X              Y              Z
 -------------------------------------------------------------------
      1        6           0.001432969   -0.003699446    0.003312266
      2        8          -0.001928346    0.003534711   -0.003164772
      3        1           0.000495378    0.000164735   -0.000147494
 -------------------------------------------------------------------
 Cartesian Forces:  Max     0.003699446 RMS     0.002432036

 GradGradGradGradGradGradGradGradGradGradGradGradGradGradGradGradGradGrad
 Berny optimization.
 Using GEDIIS/GDIIS optimizer.
 FormGI is forming the generalized inverse of G from B-inverse, IUseBI=4.
 Internal  Forces:  Max     0.005172846 RMS     0.002601126
 Search for a local minimum.
 Step number   8 out of a maximum of   20
 All quantities printed in internal units (Hartrees-Bohrs-Radians)
 Mixed Optimization -- RFO/linear search
 Update second derivatives using D2CorX and points    7    8
 DE= -4.04D-04 DEPred=-4.65D-04 R= 8.70D-01
 TightC=F SS=  1.41D+00  RLast= 6.62D-01 DXNew= 2.4000D+00 1.9867D+00
 Trust test= 8.70D-01 RLast= 6.62D-01 DXMaxT set to 1.99D+00
 The second derivative matrix:
                          R1        R2        A1        A2
           R1           3.06682
           R2          -0.26723   0.03690
           A1          -0.45268   0.05412   0.08431
           A2          -0.08588   0.01582   0.02080   0.00893
 ITU=  1  1  1  1  0
 Use linear search instead of GDIIS.
     Eigenvalues ---    0.00028   0.03144   3.13784
 RFO step:  Lambda=-7.48278792D-04 EMin= 2.79048310D-04
 Quartic linear search produced a step of  1.13789.
 Iteration  1 RMS(Cart)=  0.11678550 RMS(Int)=  0.47279069
 Iteration  2 RMS(Cart)=  0.11507216 RMS(Int)=  0.31680847
 Iteration  3 RMS(Cart)=  0.10445844 RMS(Int)=  0.19156649
 Iteration  4 RMS(Cart)=  0.08343967 RMS(Int)=  0.09139095
 Iteration  5 RMS(Cart)=  0.07455562 RMS(Int)=  0.00146029
 Iteration  6 RMS(Cart)=  0.00005737 RMS(Int)=  0.00145249
 Iteration  7 RMS(Cart)=  0.00000001 RMS(Int)=  0.00145249
 ClnCor:  largest displacement from symmetrization is 1.34D-14 for atom     3.
 Variable       Old X    -DE/DX   Delta X   Delta X   Delta X     New X
                                 (Linear)    (Quad)   (Total)
    R1        2.15459  -0.00517   0.01079  -0.02580  -0.01499   2.13960
    R2        5.75310   0.00054   0.63654   0.33935   0.97589   6.72899
    A1        1.59552   0.00009  -0.27792  -0.27349  -0.54946   1.04606
    A2        1.67079   0.00003  -0.29202  -0.31409  -0.60826   1.06253
         Item               Value     Threshold  Converged?
 Maximum Force            0.005173     0.000450     NO 
 RMS     Force            0.002601     0.000300     NO 
 Maximum Displacement     0.585387     0.001800     NO 
 RMS     Displacement     0.396272     0.001200     NO 
 Predicted change in Energy=-3.061761D-04
 GradGradGradGradGradGradGradGradGradGradGradGradGradGradGradGradGradGrad

                          Input orientation:                          
 ---------------------------------------------------------------------
 Center     Atomic      Atomic             Coordinates (Angstroms)
 Number     Number       Type             X           Y           Z
 ---------------------------------------------------------------------
      1          6           0       -4.552596    0.855054   -0.175612
      2          8           0       -4.690106    0.017770    0.574043
      3          1           0       -1.515723    1.219723   -0.502115
 ---------------------------------------------------------------------
                    Distance matrix (angstroms):
                    1          2          3
     1  C    0.000000
     2  O    1.132226   0.000000
     3  H    3.076066   3.560830   0.000000
 Stoichiometry    CHO(2)
 Framework group  CS[SG(CHO)]
 Deg. of freedom     3
 Full point group                 CS      NOp   2
 Largest Abelian subgroup         CS      NOp   2
 Largest concise Abelian subgroup C1      NOp   1
                         Standard orientation:                         
 ---------------------------------------------------------------------
 Center     Atomic      Atomic             Coordinates (Angstroms)
 Number     Number       Type             X           Y           Z
 ---------------------------------------------------------------------
      1          6           0        0.196996   -0.546875    0.000000
      2          8           0        0.196996    0.585351    0.000000
      3          1           0       -2.757949   -1.401559    0.000000
 ---------------------------------------------------------------------
 Rotational constants (GHZ):          96.3310568          35.5135384          25.9476445
 Standard basis: 6-31G(d,p) (6D, 7F)
[...]
 Trust test= 9.34D-01 RLast= 1.11D-01 DXMaxT set to 3.00D+00
 The second derivative matrix:
                          R1        R2        A1        A2
           R1           1.24740
           R2           0.00041   0.00032
           A1          -0.00508   0.00025   0.00195
           A2           0.00502   0.00031  -0.00052   0.00193
 ITU=  1  1  1  1  1
     Eigenvalues ---    0.00019   0.00155   1.24744
 En-DIIS/RFO-DIIS/Sim-DIIS IScMMF=       -3 using points:    19   18   17   16   15
 RFO step:  Lambda=-6.99207974D-08.
 DIIS inversion failure, remove point   5.
 DIIS inversion failure, remove point   4.
 RFO-DIIS uses    3 points instead of    5
 DidBck=F Rises=F RFO-DIIS coefs:    0.96081    0.00719    0.03200    0.00000    0.00000
 Iteration  1 RMS(Cart)=  0.00450156 RMS(Int)=  0.00000738
 Iteration  2 RMS(Cart)=  0.00000231 RMS(Int)=  0.00000682
 Iteration  3 RMS(Cart)=  0.00000000 RMS(Int)=  0.00000682
 ClnCor:  largest displacement from symmetrization is 3.61D-15 for atom     3.
 Variable       Old X    -DE/DX   Delta X   Delta X   Delta X     New X
                                 (Linear)    (Quad)   (Total)
    R1        2.15044   0.00022  -0.00002   0.00020   0.00018   2.15062
    R2        6.73321   0.00000   0.01205   0.00000   0.01205   6.74527
    A1        0.85902   0.00000  -0.00273   0.00000  -0.00273   0.85629
    A2        0.85698   0.00000  -0.00298   0.00000  -0.00299   0.85399
         Item               Value     Threshold  Converged?
 Maximum Force            0.000224     0.000450     YES
 RMS     Force            0.000112     0.000300     YES
 Maximum Displacement     0.006047     0.001800     NO 
 RMS     Displacement     0.004502     0.001200     NO 
 Predicted change in Energy=-3.494881D-08
 GradGradGradGradGradGradGradGradGradGradGradGradGradGradGradGradGradGrad

                          Input orientation:                          
 ---------------------------------------------------------------------
 Center     Atomic      Atomic             Coordinates (Angstroms)
 Number     Number       Type             X           Y           Z
 ---------------------------------------------------------------------
      1          6           0       -4.446297    0.841395   -0.163382
      2          8           0       -4.747511    0.023758    0.568682
      3          1           0       -1.564618    1.227394   -0.508983
 ---------------------------------------------------------------------
                    Distance matrix (angstroms):
                    1          2          3
     1  C    0.000000
     2  O    1.138058   0.000000
     3  H    2.927885   3.569441   0.000000
 Stoichiometry    CHO(2)
 Framework group  CS[SG(CHO)]
 Deg. of freedom     3
 Full point group                 CS      NOp   2
 Largest Abelian subgroup         CS      NOp   2
 Largest concise Abelian subgroup C1      NOp   1
                         Standard orientation:                         
 ---------------------------------------------------------------------
 Center     Atomic      Atomic             Coordinates (Angstroms)
 Number     Number       Type             X           Y           Z
 ---------------------------------------------------------------------
      1          6           0        0.176119   -0.522809    0.000000
      2          8           0        0.176119    0.615249    0.000000
      3          1           0       -2.465664   -1.785144    0.000000
 ---------------------------------------------------------------------
 Rotational constants (GHZ):         128.1113458          33.0684896          26.2839871
 Standard basis: 6-31G(d,p) (6D, 7F)
 There are    26 symmetry adapted cartesian basis functions of A'  symmetry.
 There are     9 symmetry adapted cartesian basis functions of A"  symmetry.
 There are    26 symmetry adapted basis functions of A'  symmetry.
 There are     9 symmetry adapted basis functions of A"  symmetry.
    35 basis functions,    63 primitive gaussians,    35 cartesian basis functions
     8 alpha electrons        7 beta electrons
       nuclear repulsion energy        24.5896055474 Hartrees.
 NAtoms=    3 NActive=    3 NUniq=    3 SFac= 1.00D+00 NAtFMM=   60 NAOKFM=F Big=F
 Integral buffers will be    131072 words long.
 Raffenetti 2 integral format.
 Two-electron integral symmetry is turned on.
 One-electron integrals computed using PRISM.
 NBasis=    35 RedAO= T EigKep=  7.92D-03  NBF=    26     9
 NBsUse=    35 1.00D-06 EigRej= -1.00D+00 NBFU=    26     9
 Initial guess from the checkpoint file:  "Z:\Desktop\0620\CO(1)H(1).chk"
 B after Tr=     0.000000    0.000000    0.000000
         Rot=    1.000000    0.000000    0.000000   -0.000845 Ang=  -0.10 deg.
 Initial guess orbital symmetries:
 Alpha Orbitals:
       Occupied  (A') (A') (A') (A') (A') (A") (A') (A')
       Virtual   (A") (A') (A') (A') (A") (A') (A') (A') (A') (A")
                 (A') (A') (A") (A') (A') (A") (A") (A') (A") (A')
                 (A') (A') (A") (A') (A') (A') (A')
 Beta  Orbitals:
       Occupied  (A') (A') (A') (A') (A") (A') (A')
       Virtual   (A') (A") (A') (A') (A") (A') (A') (A') (A') (A')
                 (A") (A') (A') (A") (A') (A") (A') (A") (A') (A")
                 (A') (A') (A') (A") (A') (A') (A') (A')
 Initial guess <Sx>= 0.0000 <Sy>= 0.0000 <Sz>= 0.5000 <S**2>= 0.7501 S= 0.5001
 Keep R1 and R2 ints in memory in symmetry-blocked form, NReq=1078317.
 Requested convergence on RMS density matrix=1.00D-08 within 128 cycles.
 Requested convergence on MAX density matrix=1.00D-06.
 Requested convergence on             energy=1.00D-06.
 No special actions if energy rises.
 SCF Done:  E(UB3LYP) =  -113.809998491     A.U. after    9 cycles
            NFock=  9  Conv=0.64D-09     -V/T= 2.0086
 <Sx>= 0.0000 <Sy>= 0.0000 <Sz>= 0.5000 <S**2>= 0.7501 S= 0.5001
 <L.S>= 0.000000000000E+00
 Annihilation of the first spin contaminant:
 S**2 before annihilation     0.7501,   after     0.7500
 Calling FoFJK, ICntrl=      2127 FMM=F ISym2X=1 I1Cent= 0 IOpClX= 1 NMat=1 NMatS=1 NMatT=0.
 ***** Axes restored to original set *****
 -------------------------------------------------------------------
 Center     Atomic                   Forces (Hartrees/Bohr)
 Number     Number              X              Y              Z
 -------------------------------------------------------------------
      1        6          -0.000001092   -0.000002790    0.000002498
      2        8           0.000001815    0.000003180   -0.000002847
      3        1          -0.000000723   -0.000000390    0.000000349
 -------------------------------------------------------------------
 Cartesian Forces:  Max     0.000003180 RMS     0.000002042

 GradGradGradGradGradGradGradGradGradGradGradGradGradGradGradGradGradGrad
 Berny optimization.
 Using GEDIIS/GDIIS optimizer.
 FormGI is forming the generalized inverse of G from B-inverse, IUseBI=4.
 Internal  Forces:  Max     0.000003952 RMS     0.000002024
 Search for a local minimum.
 Step number  20 out of a maximum of   20
 All quantities printed in internal units (Hartrees-Bohrs-Radians)
 Mixed Optimization -- En-DIIS/RFO-DIIS
 Swapping is turned off.
 Update second derivatives using D2CorX and points   16   17   18   19   20
 DE= -2.73D-08 DEPred=-3.49D-08 R= 7.81D-01
 Trust test= 7.81D-01 RLast= 1.27D-02 DXMaxT set to 3.00D+00
 The second derivative matrix:
                          R1        R2        A1        A2
           R1           1.16559
           R2           0.00198   0.00037
           A1          -0.00404   0.00026   0.00194
           A2           0.00471   0.00031  -0.00051   0.00192
 ITU=  0  1  1  1  1
     Eigenvalues ---    0.00023   0.00156   1.16563
 En-DIIS/RFO-DIIS/Sim-DIIS IScMMF=       -3 using points:    20   19   18   17   16
 RFO step:  Lambda=-2.78546495D-11.
 DIIS inversion failure, remove point   5.
 DIIS inversion failure, remove point   4.
 RFO-DIIS uses    3 points instead of    5
 DidBck=T Rises=F RFO-DIIS coefs:    0.70549    0.29292    0.00159    0.00000    0.00000
 Iteration  1 RMS(Cart)=  0.00131174 RMS(Int)=  0.00000031
 Iteration  2 RMS(Cart)=  0.00000014 RMS(Int)=  0.00000024
 ClnCor:  largest displacement from symmetrization is 1.49D-15 for atom     3.
 Variable       Old X    -DE/DX   Delta X   Delta X   Delta X     New X
                                 (Linear)    (Quad)   (Total)
    R1        2.15062   0.00000  -0.00005   0.00005   0.00000   2.15062
    R2        6.74527   0.00000  -0.00349   0.00000  -0.00349   6.74178
    A1        0.85629   0.00000   0.00069   0.00000   0.00069   0.85698
    A2        0.85399   0.00000   0.00076   0.00000   0.00076   0.85474
         Item               Value     Threshold  Converged?
 Maximum Force            0.000004     0.000450     YES
 RMS     Force            0.000002     0.000300     YES
 Maximum Displacement     0.001813     0.001800     NO 
 RMS     Displacement     0.001312     0.001200     NO 
 Predicted change in Energy=-1.544346D-09
 Optimization completed on the basis of negligible forces.
    -- Stationary point found.
                           ----------------------------
                           !   Optimized Parameters   !
                           ! (Angstroms and Degrees)  !
 --------------------------                            --------------------------
 ! Name  Definition              Value          Derivative Info.                !
 --------------------------------------------------------------------------------
 ! R1    R(1,2)                  1.1381         -DE/DX =    0.0                 !
 ! R2    R(2,3)                  3.5694         -DE/DX =    0.0                 !
 ! A1    L(1,2,3,-3,-1)         49.0619         -DE/DX =    0.0                 !
 ! A2    L(1,2,3,-2,-2)         48.9298         -DE/DX =    0.0                 !
 --------------------------------------------------------------------------------
 GradGradGradGradGradGradGradGradGradGradGradGradGradGradGradGradGradGrad

                          Input orientation:                          
 ---------------------------------------------------------------------
 Center     Atomic      Atomic             Coordinates (Angstroms)
 Number     Number       Type             X           Y           Z
 ---------------------------------------------------------------------
      1          6           0       -4.446297    0.841395   -0.163382
      2          8           0       -4.747511    0.023758    0.568682
      3          1           0       -1.564618    1.227394   -0.508983
 ---------------------------------------------------------------------
                    Distance matrix (angstroms):
                    1          2          3
     1  C    0.000000
     2  O    1.138058   0.000000
     3  H    2.927885   3.569441   0.000000
 Stoichiometry    CHO(2)
 Framework group  CS[SG(CHO)]
 Deg. of freedom     3
 Full point group                 CS      NOp   2
 Largest Abelian subgroup         CS      NOp   2
 Largest concise Abelian subgroup C1      NOp   1
                         Standard orientation:                         
 ---------------------------------------------------------------------
 Center     Atomic      Atomic             Coordinates (Angstroms)
 Number     Number       Type             X           Y           Z
 ---------------------------------------------------------------------
      1          6           0        0.176119   -0.522809    0.000000
      2          8           0        0.176119    0.615249    0.000000
      3          1           0       -2.465664   -1.785144    0.000000
 ---------------------------------------------------------------------
 Rotational constants (GHZ):         128.1113458          33.0684896          26.2839871

 **********************************************************************

            Population analysis using the SCF Density.

 **********************************************************************

 Orbital symmetries:
 Alpha Orbitals:
       Occupied  (A') (A') (A') (A') (A') (A") (A') (A')
       Virtual   (A") (A') (A') (A') (A") (A') (A') (A') (A') (A")
                 (A') (A') (A") (A') (A') (A") (A") (A') (A") (A')
                 (A') (A') (A") (A') (A') (A') (A')
 Beta  Orbitals:
       Occupied  (A') (A') (A') (A') (A") (A') (A')
       Virtual   (A') (A") (A') (A') (A") (A') (A') (A') (A') (A')
                 (A") (A') (A') (A") (A') (A") (A') (A") (A') (A")
                 (A') (A') (A') (A") (A') (A') (A') (A')
 The electronic state is 2-A'.
 Alpha  occ. eigenvalues --  -19.25787 -10.30474  -1.15781  -0.57006  -0.46778
 Alpha  occ. eigenvalues --   -0.46731  -0.37505  -0.31357
 Alpha virt. eigenvalues --   -0.02192  -0.01960   0.26260   0.51032   0.51187
 Alpha virt. eigenvalues --    0.56390   0.74689   0.77451   0.80399   0.91649
 Alpha virt. eigenvalues --    0.92665   1.37281   1.47908   1.48006   1.54003
 Alpha virt. eigenvalues --    1.54015   1.94240   1.94278   1.94869   1.94954
 Alpha virt. eigenvalues --    1.96252   2.39537   2.59880   2.60385   2.94974
 Alpha virt. eigenvalues --    3.67411   3.90833
  Beta  occ. eigenvalues --  -19.25772 -10.30450  -1.15753  -0.56976  -0.46716
  Beta  occ. eigenvalues --   -0.46702  -0.37180
  Beta virt. eigenvalues --   -0.06630  -0.02179  -0.00744   0.26134   0.51125
  Beta virt. eigenvalues --    0.51929   0.57765   0.74883   0.79936   0.90765
  Beta virt. eigenvalues --    0.91641   0.98643   1.37258   1.47933   1.48057
  Beta virt. eigenvalues --    1.54054   1.54056   1.94275   1.94328   2.17474
  Beta virt. eigenvalues --    2.17532   2.18045   2.39595   2.59914   2.60489
  Beta virt. eigenvalues --    2.94986   3.67407   3.90872
          Condensed to atoms (all electrons):
               1          2          3
     1  C    5.248509   0.573692   0.004283
     2  O    0.573692   7.601232  -0.000403
     3  H    0.004283  -0.000403   0.995117
          Atomic-Atomic Spin Densities.
               1          2          3
     1  C    0.006458  -0.000840  -0.001364
     2  O   -0.000840   0.006826  -0.000321
     3  H   -0.001364  -0.000321   0.991765
 Mulliken charges and spin densities:
               1          2
     1  C    0.173517   0.004255
     2  O   -0.174520   0.005665
     3  H    0.001003   0.990080
 Sum of Mulliken charges =   0.00000   1.00000
 Mulliken charges and spin densities with hydrogens summed into heavy atoms:
               1          2
     1  C    0.174520   0.994335
     2  O   -0.174520   0.005665
 Electronic spatial extent (au):  <R**2>=             77.6239
 Charge=              0.0000 electrons
 Dipole moment (field-independent basis, Debye):
    X=             -0.0169    Y=              0.0444    Z=              0.0000  Tot=              0.0475
 Quadrupole moment (field-independent basis, Debye-Ang):
   XX=            -11.0860   YY=            -13.1584   ZZ=            -11.1466
   XY=              0.0623   XZ=              0.0000   YZ=              0.0000
 Traceless Quadrupole moment (field-independent basis, Debye-Ang):
   XX=              0.7110   YY=             -1.3614   ZZ=              0.6504
   XY=              0.0623   XZ=              0.0000   YZ=              0.0000
 Octapole moment (field-independent basis, Debye-Ang**2):
  XXX=              3.9868  YYY=              7.9056  ZZZ=              0.0000  XYY=              0.9232
  XXY=              1.9282  XXZ=              0.0000  XZZ=              1.4104  YZZ=              2.0918
  YYZ=              0.0000  XYZ=              0.0000
 Hexadecapole moment (field-independent basis, Debye-Ang**3):
 XXXX=            -56.8386 YYYY=            -58.1362 ZZZZ=             -9.1924 XXXY=            -16.4208
 XXXZ=              0.0000 YYYX=            -16.3558 YYYZ=              0.0000 ZZZX=              0.0000
 ZZZY=              0.0000 XXYY=            -18.6592 XXZZ=            -11.1222 YYZZ=            -10.9028
 XXYZ=              0.0000 YYXZ=              0.0000 ZZXY=             -5.6442
 N-N= 2.458960554740D+01 E-N=-3.158712149393D+02  KE= 1.128394690467D+02
 Symmetry A'   KE= 1.087831011503D+02
 Symmetry A"   KE= 4.056367896389D+00
 Symmetry A'   SP= 1.000000000000D+00
 Symmetry A"   SP=-5.012456378781D-15
                          Isotropic Fermi Contact Couplings
        Atom                 a.u.       MegaHertz       Gauss      10(-4) cm-1
     1  C(13)              0.01636      18.38648       6.56075       6.13307
     2  O(17)              0.00074      -0.44782      -0.15979      -0.14938
     3  H(1)               0.30060    1343.62771     479.43978     448.18596
 --------------------------------------------------------
       Center         ----  Spin Dipole Couplings  ----
                      3XX-RR        3YY-RR        3ZZ-RR
 --------------------------------------------------------
     1   Atom        0.002750      0.005542     -0.008291
     2   Atom        0.022460     -0.007138     -0.015323
     3   Atom       -0.000142      0.000105      0.000037
 --------------------------------------------------------
                        XY            XZ            YZ
 --------------------------------------------------------
     1   Atom       -0.004361      0.000000      0.000000
     2   Atom       -0.013224      0.000000      0.000000
     3   Atom        0.000019      0.000000      0.000000
 --------------------------------------------------------


 ---------------------------------------------------------------------------------
              Anisotropic Spin Dipole Couplings in Principal Axis System
 ---------------------------------------------------------------------------------

       Atom             a.u.   MegaHertz   Gauss  10(-4) cm-1        Axes

              Baa    -0.0083    -1.113    -0.397    -0.371  0.0000  0.0000  1.0000
     1 C(13)  Bbb    -0.0004    -0.058    -0.021    -0.019  0.8077  0.5896  0.0000
              Bcc     0.0087     1.171     0.418     0.391 -0.5896  0.8077  0.0000
 
              Baa    -0.0153     1.109     0.396     0.370  0.0000  0.0000  1.0000
     2 O(17)  Bbb    -0.0122     0.882     0.315     0.294  0.3566  0.9343  0.0000
              Bcc     0.0275    -1.990    -0.710    -0.664  0.9343 -0.3566  0.0000
 
              Baa    -0.0001    -0.076    -0.027    -0.025  0.9970 -0.0770  0.0000
     3 H(1)   Bbb     0.0000     0.020     0.007     0.007  0.0000  0.0000  1.0000
              Bcc     0.0001     0.057     0.020     0.019  0.0770  0.9970  0.0000
 

 ---------------------------------------------------------------------------------

 Unable to Open any file for archive entry.
 1|1|UNPC-PCHID016|FOpt|UB3LYP|6-31G(d,p)|C1H1O1(2)|S202036C|20-Jun-202
 3|0||# opt b3lyp/6-31g(d,p) geom=connectivity||Title Card Required||0,
 2|C,-4.4462968948,0.8413946928,-0.1633818219|O,-4.7475107101,0.0237582
 681,0.5686816843|H,-1.5646180651,1.2273941691,-0.5089830225||Version=E
 M64W-G16RevC.01|State=2-A'|HF=-113.8099985|S2=0.750142|S2-1=0.|S2A=0.7
 5|RMSD=6.400e-010|RMSF=2.042e-006|Dipole=0.0018097,-0.0138581,0.012407
 7|Quadrupole=0.4443148,-0.29986,-0.1444548,-0.2633412,0.2357802,0.7014
 4|PG=CS [SG(C1H1O1)]||@
 The archive entry for this job was punched.


 "ANNA, YOU MUSN'T SPEAK OF OXIDIZED MURIATIC ACID
 ANYMORE, FROM NOW ON YOU MUST SAY CHLORINE."
   -- JENS JACOB BERZELIUS, IN 1820, TO HIS COOK, WHO HAD
 COMPLAINED OF THE SMELL OF THE FLASK SHE WAS CLEANING.
 Job cpu time:       0 days  0 hours  1 minutes 32.0 seconds.
 Elapsed time:       0 days  0 hours  1 minutes  6.6 seconds.
 File lengths (MBytes):  RWF=      6 Int=      0 D2E=      0 Chk=      1 Scr=      1
 Normal termination of Gaussian 16 at Tue Jun 20 16:01:40 2023.
