 Entering Link 1 = C:\G16W\l1.exe PID=      2352.
  
 Copyright (c) 1988-2019, Gaussian, Inc.  All Rights Reserved.
  
 This is part of the Gaussian(R) 16 program.  It is based on
 the Gaussian(R) 09 system (copyright 2009, Gaussian, Inc.),
 the Gaussian(R) 03 system (copyright 2003, Gaussian, Inc.),
 the Gaussian(R) 98 system (copyright 1998, Gaussian, Inc.),
 the Gaussian(R) 94 system (copyright 1995, Gaussian, Inc.),
 the Gaussian 92(TM) system (copyright 1992, Gaussian, Inc.),
 the Gaussian 90(TM) system (copyright 1990, Gaussian, Inc.),
 the Gaussian 88(TM) system (copyright 1988, Gaussian, Inc.),
 the Gaussian 86(TM) system (copyright 1986, Carnegie Mellon
 University), and the Gaussian 82(TM) system (copyright 1983,
 Carnegie Mellon University). Gaussian is a federally registered
 trademark of Gaussian, Inc.
  
 This software contains proprietary and confidential information,
 including trade secrets, belonging to Gaussian, Inc.
  
 This software is provided under written license and may be
 used, copied, transmitted, or stored only in accord with that
 written license.
  
 The following legend is applicable only to US Government
 contracts under FAR:
  
                    RESTRICTED RIGHTS LEGEND
  
 Use, reproduction and disclosure by the US Government is
 subject to restrictions as set forth in subparagraphs (a)
 and (c) of the Commercial Computer Software - Restricted
 Rights clause in FAR 52.227-19.
  
 Gaussian, Inc.
 340 Quinnipiac St., Bldg. 40, Wallingford CT 06492
  
  
 ---------------------------------------------------------------
 Warning -- This program may not be used in any manner that
 competes with the business of Gaussian, Inc. or will provide
 assistance to any competitor of Gaussian, Inc.  The licensee
 of this program is prohibited from giving any competitor of
 Gaussian, Inc. access to this program.  By using this program,
 the user acknowledges that Gaussian, Inc. is engaged in the
 business of creating and licensing software in the field of
 computational chemistry and represents and warrants to the
 licensee that it is not a competitor of Gaussian, Inc. and that
 it will not use this program in any manner prohibited above.
 ---------------------------------------------------------------
  

 Cite this work as:
 Gaussian 16, Revision C.01,
 M. J. Frisch, G. W. Trucks, H. B. Schlegel, G. E. Scuseria, 
 M. A. Robb, J. R. Cheeseman, G. Scalmani, V. Barone, 
 G. A. Petersson, H. Nakatsuji, X. Li, M. Caricato, A. V. Marenich, 
 J. Bloino, B. G. Janesko, R. Gomperts, B. Mennucci, H. P. Hratchian, 
 J. V. Ortiz, A. F. Izmaylov, J. L. Sonnenberg, D. Williams-Young, 
 F. Ding, F. Lipparini, F. Egidi, J. Goings, B. Peng, A. Petrone, 
 T. Henderson, D. Ranasinghe, V. G. Zakrzewski, J. Gao, N. Rega, 
 G. Zheng, W. Liang, M. Hada, M. Ehara, K. Toyota, R. Fukuda, 
 J. Hasegawa, M. Ishida, T. Nakajima, Y. Honda, O. Kitao, H. Nakai, 
 T. Vreven, K. Throssell, J. A. Montgomery, Jr., J. E. Peralta, 
 F. Ogliaro, M. J. Bearpark, J. J. Heyd, E. N. Brothers, K. N. Kudin, 
 V. N. Staroverov, T. A. Keith, R. Kobayashi, J. Normand, 
 K. Raghavachari, A. P. Rendell, J. C. Burant, S. S. Iyengar, 
 J. Tomasi, M. Cossi, J. M. Millam, M. Klene, C. Adamo, R. Cammi, 
 J. W. Ochterski, R. L. Martin, K. Morokuma, O. Farkas, 
 J. B. Foresman, and D. J. Fox, Gaussian, Inc., Wallingford CT, 2019.
 
 ******************************************
 Gaussian 16:  EM64W-G16RevC.01 30-May-2019
                20-Jun-2023 
 ******************************************
 %chk=Z:\Desktop\0620\CO(1)H(1)1_3.chk
 ----------------------------------------
 # opt b3lyp/6-31g(d,p) geom=connectivity
 ----------------------------------------
 1/18=20,19=15,26=3,38=1,57=2/1,3;
 2/9=110,12=2,17=6,18=5,40=1/2;
 3/5=1,6=6,7=101,11=2,25=1,30=1,71=1,74=-5/1,2,3;
 4//1;
 5/5=2,38=5/2;
 6/7=2,8=2,9=2,10=2,28=1/1;
 7//1,2,3,16;
 1/18=20,19=15,26=3/3(2);
 2/9=110/2;
 99//99;
 2/9=110/2;
 3/5=1,6=6,7=101,11=2,25=1,30=1,71=1,74=-5/1,2,3;
 4/5=5,16=3,69=1/1;
 5/5=2,38=5/2;
 7//1,2,3,16;
 1/18=20,19=15,26=3/3(-5);
 2/9=110/2;
 6/7=2,8=2,9=2,10=2,19=2,28=1/1;
 99/9=1/99;
 -------------------
 Title Card Required
 -------------------
 Symbolic Z-matrix:
 Charge =  0 Multiplicity = 1
 C                     0.9259    0.43596   0.03941 
 O                     1.81765  -0.26596  -0.01391 
 O                    -2.04858  -0.11107  -0.10609 
 H                    -1.40151   0.60658  -0.09575 
 H                    -2.30642  -0.20613   0.81926 
 
 Add virtual bond connecting atoms H4         and C1         Dist= 4.42D+00.

 GradGradGradGradGradGradGradGradGradGradGradGradGradGradGradGradGradGrad
 Berny optimization.
 Initialization pass.
                           ----------------------------
                           !    Initial Parameters    !
                           ! (Angstroms and Degrees)  !
 --------------------------                            --------------------------
 ! Name  Definition              Value          Derivative Info.                !
 --------------------------------------------------------------------------------
 ! R1    R(1,2)                  1.1361         estimate D2E/DX2                !
 ! R2    R(1,4)                  2.3376         estimate D2E/DX2                !
 ! R3    R(3,4)                  0.9663         estimate D2E/DX2                !
 ! R4    R(3,5)                  0.9653         estimate D2E/DX2                !
 ! A1    A(2,1,4)              145.4759         estimate D2E/DX2                !
 ! A2    A(4,3,5)              103.989          estimate D2E/DX2                !
 ! A3    A(1,4,3)              127.8144         estimate D2E/DX2                !
 ! D1    D(2,1,4,3)             11.4204         estimate D2E/DX2                !
 ! D2    D(5,3,4,1)             94.1235         estimate D2E/DX2                !
 --------------------------------------------------------------------------------
 Trust Radius=3.00D-01 FncErr=1.00D-07 GrdErr=1.00D-06 EigMax=2.50D+02 EigMin=1.00D-04
 Number of steps in this run=     20 maximum allowed number of steps=    100.
 GradGradGradGradGradGradGradGradGradGradGradGradGradGradGradGradGradGrad

                          Input orientation:                          
 ---------------------------------------------------------------------
 Center     Atomic      Atomic             Coordinates (Angstroms)
 Number     Number       Type             X           Y           Z
 ---------------------------------------------------------------------
      1          6           0        0.925895    0.435958    0.039414
      2          8           0        1.817651   -0.265961   -0.013909
      3          8           0       -2.048581   -0.111065   -0.106090
      4          1           0       -1.401512    0.606583   -0.095749
      5          1           0       -2.306420   -0.206129    0.819261
 ---------------------------------------------------------------------
                    Distance matrix (angstroms):
                    1          2          3          4          5
     1  C    0.000000
     2  O    1.136117   0.000000
     3  O    3.027856   3.870431   0.000000
     4  H    2.337564   3.336322   0.966346   0.000000
     5  H    3.386487   4.207816   0.965294   1.522039   0.000000
 Stoichiometry    CH2O2
 Framework group  C1[X(CH2O2)]
 Deg. of freedom     9
 Full point group                 C1      NOp   1
 Largest Abelian subgroup         C1      NOp   1
 Largest concise Abelian subgroup C1      NOp   1
                         Standard orientation:                         
 ---------------------------------------------------------------------
 Center     Atomic      Atomic             Coordinates (Angstroms)
 Number     Number       Type             X           Y           Z
 ---------------------------------------------------------------------
      1          6           0        0.925895    0.435958    0.039414
      2          8           0        1.817651   -0.265961   -0.013909
      3          8           0       -2.048581   -0.111065   -0.106090
      4          1           0       -1.401512    0.606583   -0.095749
      5          1           0       -2.306420   -0.206129    0.819261
 ---------------------------------------------------------------------
 Rotational constants (GHZ):         103.7529265           3.6577284           3.5750699
 Standard basis: 6-31G(d,p) (6D, 7F)
 There are    55 symmetry adapted cartesian basis functions of A   symmetry.
 There are    55 symmetry adapted basis functions of A   symmetry.
    55 basis functions,    98 primitive gaussians,    55 cartesian basis functions
    12 alpha electrons       12 beta electrons
       nuclear repulsion energy        53.1814823742 Hartrees.
 NAtoms=    5 NActive=    5 NUniq=    5 SFac= 1.00D+00 NAtFMM=   60 NAOKFM=F Big=F
 Integral buffers will be    131072 words long.
 Raffenetti 2 integral format.
 Two-electron integral symmetry is turned on.
 One-electron integrals computed using PRISM.
 NBasis=    55 RedAO= T EigKep=  7.06D-03  NBF=    55
 NBsUse=    55 1.00D-06 EigRej= -1.00D+00 NBFU=    55
 ExpMin= 1.61D-01 ExpMax= 5.48D+03 ExpMxC= 8.25D+02 IAcc=3 IRadAn=         5 AccDes= 0.00D+00
 Harris functional with IExCor=  402 and IRadAn=       5 diagonalized for initial guess.
 HarFok:  IExCor=  402 AccDes= 0.00D+00 IRadAn=         5 IDoV= 1 UseB2=F ITyADJ=14
 ICtDFT=  3500011 ScaDFX=  1.000000  1.000000  1.000000  1.000000
 FoFCou: FMM=F IPFlag=           0 FMFlag=      100000 FMFlg1=           0
         NFxFlg=           0 DoJE=T BraDBF=F KetDBF=T FulRan=T
         wScrn=  0.000000 ICntrl=       500 IOpCl=  0 I1Cent=   200000004 NGrid=           0
         NMat0=    1 NMatS0=      1 NMatT0=    0 NMatD0=    1 NMtDS0=    0 NMtDT0=    0
 Petite list used in FoFCou.
 Keep R1 ints in memory in canonical form, NReq=2064058.
 Requested convergence on RMS density matrix=1.00D-08 within 128 cycles.
 Requested convergence on MAX density matrix=1.00D-06.
 Requested convergence on             energy=1.00D-06.
 No special actions if energy rises.
 Integral accuracy reduced to 1.0D-05 until final iterations.
 Initial convergence to 1.0D-05 achieved.  Increase integral accuracy.
 SCF Done:  E(RB3LYP) =  -189.733215563     A.U. after   12 cycles
            NFock= 12  Conv=0.38D-08     -V/T= 2.0084

 **********************************************************************

            Population analysis using the SCF Density.

 **********************************************************************

 Orbital symmetries:
       Occupied  (A) (A) (A) (A) (A) (A) (A) (A) (A) (A) (A) (A)
       Virtual   (A) (A) (A) (A) (A) (A) (A) (A) (A) (A) (A) (A)
                 (A) (A) (A) (A) (A) (A) (A) (A) (A) (A) (A) (A)
                 (A) (A) (A) (A) (A) (A) (A) (A) (A) (A) (A) (A)
                 (A) (A) (A) (A) (A) (A) (A)
 The electronic state is 1-A.
 Alpha  occ. eigenvalues --  -19.26722 -19.13452 -10.31497  -1.16748  -0.99347
 Alpha  occ. eigenvalues --   -0.57850  -0.51329  -0.47648  -0.47566  -0.39095
 Alpha  occ. eigenvalues --   -0.36303  -0.28903
 Alpha virt. eigenvalues --   -0.03227  -0.03140   0.08406   0.16599   0.28323
 Alpha virt. eigenvalues --    0.49862   0.50482   0.63403   0.74098   0.77298
 Alpha virt. eigenvalues --    0.79250   0.82145   0.87835   0.89570   0.92281
 Alpha virt. eigenvalues --    1.01436   1.03964   1.19663   1.40872   1.46944
 Alpha virt. eigenvalues --    1.47051   1.53112   1.53566   1.55214   1.57130
 Alpha virt. eigenvalues --    1.66533   1.93468   1.93591   2.24764   2.27248
 Alpha virt. eigenvalues --    2.38742   2.46048   2.59127   2.59594   2.65719
 Alpha virt. eigenvalues --    2.67586   2.95748   3.03304   3.33248   3.54662
 Alpha virt. eigenvalues --    3.65482   3.78856   3.94796
          Condensed to atoms (all electrons):
               1          2          3          4          5
     1  C    5.212373   0.580299   0.000897   0.022518   0.000971
     2  O    0.580299   7.595113  -0.000098  -0.000905   0.000016
     3  O    0.000897  -0.000098   8.057777   0.276664   0.283495
     4  H    0.022518  -0.000905   0.276664   0.421883  -0.028042
     5  H    0.000971   0.000016   0.283495  -0.028042   0.441221
 Mulliken charges:
               1
     1  C    0.182941
     2  O   -0.174425
     3  O   -0.618735
     4  H    0.307880
     5  H    0.302339
 Sum of Mulliken charges =   0.00000
 Mulliken charges with hydrogens summed into heavy atoms:
               1
     1  C    0.182941
     2  O   -0.174425
     3  O   -0.008516
 Electronic spatial extent (au):  <R**2>=            307.8263
 Charge=              0.0000 electrons
 Dipole moment (field-independent basis, Debye):
    X=              0.8367    Y=              0.9625    Z=              1.5717  Tot=              2.0240
 Quadrupole moment (field-independent basis, Debye-Ang):
   XX=            -19.5814   YY=            -16.8487   ZZ=            -15.3086
   XY=             -0.2319   XZ=             -3.9088   YZ=             -0.6030
 Traceless Quadrupole moment (field-independent basis, Debye-Ang):
   XX=             -2.3352   YY=              0.3976   ZZ=              1.9376
   XY=             -0.2319   XZ=             -3.9088   YZ=             -0.6030
 Octapole moment (field-independent basis, Debye-Ang**2):
  XXX=              1.5962  YYY=             -2.0653  ZZZ=              1.3521  XYY=             -0.8836
  XXY=              1.5678  XXZ=              9.7399  XZZ=             -2.5472  YZZ=             -0.8073
  YYZ=              0.1033  XYZ=              1.0541
 Hexadecapole moment (field-independent basis, Debye-Ang**3):
 XXXX=           -316.7714 YYYY=            -23.9436 ZZZZ=            -13.7842 XXXY=              2.8655
 XXXZ=            -23.9755 YYYX=             -2.7572 YYYZ=             -0.4303 ZZZX=             -3.9148
 ZZZY=             -0.5555 XXYY=            -52.7022 XXZZ=            -45.9998 YYZZ=             -6.3710
 XXYZ=             -2.3982 YYXZ=             -0.7015 ZZXY=             -0.1155
 N-N= 5.318148237423D+01 E-N=-5.525504392653D+02  KE= 1.881501098888D+02
 Calling FoFJK, ICntrl=      2127 FMM=F ISym2X=0 I1Cent= 0 IOpClX= 0 NMat=1 NMatS=1 NMatT=0.
 ***** Axes restored to original set *****
 -------------------------------------------------------------------
 Center     Atomic                   Forces (Hartrees/Bohr)
 Number     Number              X              Y              Z
 -------------------------------------------------------------------
      1        6          -0.000512964    0.000580685    0.000119816
      2        8           0.000530965   -0.000563381   -0.000083914
      3        8           0.000138209   -0.000056875   -0.000462662
      4        1          -0.000403381   -0.000235994    0.000305186
      5        1           0.000247171    0.000275566    0.000121573
 -------------------------------------------------------------------
 Cartesian Forces:  Max     0.000580685 RMS     0.000357845

 GradGradGradGradGradGradGradGradGradGradGradGradGradGradGradGradGradGrad
 Berny optimization.
 FormGI is forming the generalized inverse of G from B-inverse, IUseBI=4.
 Internal  Forces:  Max     0.000768849 RMS     0.000389742
 Search for a local minimum.
 Step number   1 out of a maximum of   20
 All quantities printed in internal units (Hartrees-Bohrs-Radians)
 Mixed Optimization -- En-DIIS/RFO-DIIS
 Second derivative matrix not updated -- first step.
 The second derivative matrix:
                          R1        R2        R3        R4        A1
           R1           1.44789
           R2           0.00000   0.02581
           R3           0.00000   0.00000   0.54131
           R4           0.00000   0.00000   0.00000   0.54350
           A1           0.00000   0.00000   0.00000   0.00000   0.16000
           A2           0.00000   0.00000   0.00000   0.00000   0.00000
           A3           0.00000   0.00000   0.00000   0.00000   0.00000
           D1           0.00000   0.00000   0.00000   0.00000   0.00000
           D2           0.00000   0.00000   0.00000   0.00000   0.00000
                          A2        A3        D1        D2
           A2           0.16000
           A3           0.00000   0.25000
           D1           0.00000   0.00000   0.00230
           D2           0.00000   0.00000   0.00000   0.01474
 ITU=  0
     Eigenvalues ---    0.00230   0.01474   0.02581   0.16000   0.16000
     Eigenvalues ---    0.25000   0.54131   0.54350   1.44789
 RFO step:  Lambda=-4.95217686D-06 EMin= 2.30000000D-03
 Linear search not attempted -- first point.
 Iteration  1 RMS(Cart)=  0.00388307 RMS(Int)=  0.00002425
 Iteration  2 RMS(Cart)=  0.00002483 RMS(Int)=  0.00000000
 Iteration  3 RMS(Cart)=  0.00000000 RMS(Int)=  0.00000000
 Variable       Old X    -DE/DX   Delta X   Delta X   Delta X     New X
                                 (Linear)    (Quad)   (Total)
    R1        2.14695   0.00077   0.00000   0.00053   0.00053   2.14748
    R2        4.41736   0.00002   0.00000   0.00073   0.00073   4.41808
    R3        1.82613  -0.00042   0.00000  -0.00077  -0.00077   1.82536
    R4        1.82414   0.00002   0.00000   0.00004   0.00004   1.82418
    A1        2.53903  -0.00026   0.00000  -0.00162  -0.00162   2.53741
    A2        1.81495  -0.00071   0.00000  -0.00443  -0.00443   1.81052
    A3        2.23078  -0.00017   0.00000  -0.00067  -0.00067   2.23011
    D1        0.19932   0.00003   0.00000   0.01441   0.01441   0.21374
    D2        1.64276  -0.00003   0.00000  -0.00177  -0.00177   1.64099
         Item               Value     Threshold  Converged?
 Maximum Force            0.000769     0.000450     NO 
 RMS     Force            0.000390     0.000300     NO 
 Maximum Displacement     0.007669     0.001800     NO 
 RMS     Displacement     0.003887     0.001200     NO 
 Predicted change in Energy=-2.476087D-06
 GradGradGradGradGradGradGradGradGradGradGradGradGradGradGradGradGradGrad

                          Input orientation:                          
 ---------------------------------------------------------------------
 Center     Atomic      Atomic             Coordinates (Angstroms)
 Number     Number       Type             X           Y           Z
 ---------------------------------------------------------------------
      1          6           0        0.925158    0.435884    0.043472
      2          8           0        1.816959   -0.265905   -0.016393
      3          8           0       -2.048504   -0.112307   -0.106946
      4          1           0       -1.402408    0.605669   -0.096582
      5          1           0       -2.304172   -0.203956    0.819375
 ---------------------------------------------------------------------
                    Distance matrix (angstroms):
                    1          2          3          4          5
     1  C    0.000000
     2  O    1.136398   0.000000
     3  O    3.027508   3.869573   0.000000
     4  H    2.337949   3.336225   0.965938   0.000000
     5  H    3.382306   4.205481   0.965317   1.519095   0.000000
 Stoichiometry    CH2O2
 Framework group  C1[X(CH2O2)]
 Deg. of freedom     9
 Full point group                 C1      NOp   1
 Largest Abelian subgroup         C1      NOp   1
 Largest concise Abelian subgroup C1      NOp   1
                         Standard orientation:                         
 ---------------------------------------------------------------------
 Center     Atomic      Atomic             Coordinates (Angstroms)
 Number     Number       Type             X           Y           Z
 ---------------------------------------------------------------------
      1          6           0        0.925589    0.436583    0.037751
      2          8           0        1.817233   -0.266139   -0.012801
      3          8           0       -2.048200   -0.112904   -0.105234
      4          1           0       -1.401945    0.605003   -0.104458
      5          1           0       -2.303848   -0.192155    0.822236
 ---------------------------------------------------------------------
 Rotational constants (GHZ):         103.5651038           3.6594093           3.5766033
 Standard basis: 6-31G(d,p) (6D, 7F)
 There are    55 symmetry adapted cartesian basis functions of A   symmetry.
 There are    55 symmetry adapted basis functions of A   symmetry.
    55 basis functions,    98 primitive gaussians,    55 cartesian basis functions
    12 alpha electrons       12 beta electrons
       nuclear repulsion energy        53.1828103919 Hartrees.
 NAtoms=    5 NActive=    5 NUniq=    5 SFac= 1.00D+00 NAtFMM=   60 NAOKFM=F Big=F
 Integral buffers will be    131072 words long.
 Raffenetti 2 integral format.
 Two-electron integral symmetry is turned on.
 One-electron integrals computed using PRISM.
 NBasis=    55 RedAO= T EigKep=  7.07D-03  NBF=    55
 NBsUse=    55 1.00D-06 EigRej= -1.00D+00 NBFU=    55
 Initial guess from the checkpoint file:  "Z:\Desktop\0620\CO(1)H(1)1_3.chk"
 B after Tr=     0.000000    0.000000    0.000000
         Rot=    0.999990    0.004451   -0.000025   -0.000014 Ang=   0.51 deg.
 Keep R1 ints in memory in canonical form, NReq=2064058.
 Requested convergence on RMS density matrix=1.00D-08 within 128 cycles.
 Requested convergence on MAX density matrix=1.00D-06.
 Requested convergence on             energy=1.00D-06.
 No special actions if energy rises.
 SCF Done:  E(RB3LYP) =  -189.733218397     A.U. after    8 cycles
            NFock=  8  Conv=0.39D-08     -V/T= 2.0084
 Calling FoFJK, ICntrl=      2127 FMM=F ISym2X=0 I1Cent= 0 IOpClX= 0 NMat=1 NMatS=1 NMatT=0.
 ***** Axes restored to original set *****
 -------------------------------------------------------------------
 Center     Atomic                   Forces (Hartrees/Bohr)
 Number     Number              X              Y              Z
 -------------------------------------------------------------------
      1        6           0.000024621    0.000154392    0.000073531
      2        8          -0.000002775   -0.000140662   -0.000040794
      3        8           0.000012577   -0.000113395   -0.000089636
      4        1          -0.000009001    0.000134320   -0.000074785
      5        1          -0.000025422   -0.000034655    0.000131684
 -------------------------------------------------------------------
 Cartesian Forces:  Max     0.000154392 RMS     0.000087659

 GradGradGradGradGradGradGradGradGradGradGradGradGradGradGradGradGradGrad
 Berny optimization.
 Using GEDIIS/GDIIS optimizer.
 FormGI is forming the generalized inverse of G from B-inverse, IUseBI=4.
 Internal  Forces:  Max     0.000251323 RMS     0.000123681
 Search for a local minimum.
 Step number   2 out of a maximum of   20
 All quantities printed in internal units (Hartrees-Bohrs-Radians)
 Mixed Optimization -- En-DIIS/RFO-DIIS
 Swapping is turned off.
 Update second derivatives using D2CorX and points    1    2
 DE= -2.83D-06 DEPred=-2.48D-06 R= 1.14D+00
 TightC=F SS=  1.41D+00  RLast= 1.53D-02 DXNew= 5.0454D-01 4.5997D-02
 Trust test= 1.14D+00 RLast= 1.53D-02 DXMaxT set to 3.00D-01
 The second derivative matrix:
                          R1        R2        R3        R4        A1
           R1           1.43952
           R2          -0.00356   0.02574
           R3          -0.02233   0.00209   0.57450
           R4          -0.02205   0.00002   0.01641   0.54644
           A1           0.03898   0.00099  -0.02082   0.00145   0.14642
           A2          -0.00794   0.00338   0.03291   0.02295  -0.03579
           A3           0.02778   0.00063  -0.01545   0.00054  -0.00886
           D1          -0.00267  -0.00014   0.00085  -0.00057   0.00171
           D2           0.00614   0.00009  -0.00384  -0.00022  -0.00139
                          A2        A3        D1        D2
           A2           0.18401
           A3          -0.02586   0.24427
           D1           0.00212   0.00117   0.00213
           D2          -0.00597  -0.00086   0.00022   0.01464
 ITU=  1  0
     Eigenvalues ---    0.00204   0.01431   0.02562   0.12019   0.19596
     Eigenvalues ---    0.25112   0.53928   0.58651   1.44265
 En-DIIS/RFO-DIIS/Sim-DIIS IScMMF=       -3 using points:     2    1
 RFO step:  Lambda=-1.16664758D-06.
 DidBck=F Rises=F RFO-DIIS coefs:    1.81433   -0.81433
 Iteration  1 RMS(Cart)=  0.00269027 RMS(Int)=  0.00001649
 Iteration  2 RMS(Cart)=  0.00001542 RMS(Int)=  0.00000000
 Iteration  3 RMS(Cart)=  0.00000000 RMS(Int)=  0.00000000
 Variable       Old X    -DE/DX   Delta X   Delta X   Delta X     New X
                                 (Linear)    (Quad)   (Total)
    R1        2.14748   0.00009   0.00043  -0.00025   0.00018   2.14766
    R2        4.41808   0.00002   0.00059   0.00060   0.00119   4.41928
    R3        1.82536   0.00012  -0.00063   0.00073   0.00010   1.82546
    R4        1.82418   0.00014   0.00004   0.00027   0.00031   1.82449
    A1        2.53741  -0.00025  -0.00132  -0.00087  -0.00219   2.53522
    A2        1.81052   0.00002  -0.00361   0.00281  -0.00080   1.80971
    A3        2.23011  -0.00018  -0.00055  -0.00043  -0.00098   2.22912
    D1        0.21374   0.00002   0.01174   0.00051   0.01225   0.22599
    D2        1.64099  -0.00004  -0.00144  -0.00205  -0.00349   1.63750
         Item               Value     Threshold  Converged?
 Maximum Force            0.000251     0.000450     YES
 RMS     Force            0.000124     0.000300     YES
 Maximum Displacement     0.005401     0.001800     NO 
 RMS     Displacement     0.002691     0.001200     NO 
 Predicted change in Energy=-5.833725D-07
 GradGradGradGradGradGradGradGradGradGradGradGradGradGradGradGradGradGrad

                          Input orientation:                          
 ---------------------------------------------------------------------
 Center     Atomic      Atomic             Coordinates (Angstroms)
 Number     Number       Type             X           Y           Z
 ---------------------------------------------------------------------
      1          6           0        0.924997    0.436276    0.046330
      2          8           0        1.816000   -0.266291   -0.017949
      3          8           0       -2.048388   -0.112970   -0.107143
      4          1           0       -1.402958    0.605692   -0.098181
      5          1           0       -2.302618   -0.203320    0.819870
 ---------------------------------------------------------------------
                    Distance matrix (angstroms):
                    1          2          3          4          5
     1  C    0.000000
     2  O    1.136494   0.000000
     3  O    3.027580   3.868456   0.000000
     4  H    2.338581   3.335938   0.965990   0.000000
     5  H    3.380080   4.203441   0.965479   1.518785   0.000000
 Stoichiometry    CH2O2
 Framework group  C1[X(CH2O2)]
 Deg. of freedom     9
 Full point group                 C1      NOp   1
 Largest Abelian subgroup         C1      NOp   1
 Largest concise Abelian subgroup C1      NOp   1
                         Standard orientation:                         
 ---------------------------------------------------------------------
 Center     Atomic      Atomic             Coordinates (Angstroms)
 Number     Number       Type             X           Y           Z
 ---------------------------------------------------------------------
      1          6           0        0.925749    0.437448    0.037133
      2          8           0        1.816527   -0.266602   -0.012338
      3          8           0       -2.047814   -0.113965   -0.104661
      4          1           0       -1.402156    0.604521   -0.110868
      5          1           0       -2.302046   -0.184668    0.824057
 ---------------------------------------------------------------------
 Rotational constants (GHZ):         103.2424870           3.6612104           3.5780583
 Standard basis: 6-31G(d,p) (6D, 7F)
 There are    55 symmetry adapted cartesian basis functions of A   symmetry.
 There are    55 symmetry adapted basis functions of A   symmetry.
    55 basis functions,    98 primitive gaussians,    55 cartesian basis functions
    12 alpha electrons       12 beta electrons
       nuclear repulsion energy        53.1832036037 Hartrees.
 NAtoms=    5 NActive=    5 NUniq=    5 SFac= 1.00D+00 NAtFMM=   60 NAOKFM=F Big=F
 Integral buffers will be    131072 words long.
 Raffenetti 2 integral format.
 Two-electron integral symmetry is turned on.
 One-electron integrals computed using PRISM.
 NBasis=    55 RedAO= T EigKep=  7.08D-03  NBF=    55
 NBsUse=    55 1.00D-06 EigRej= -1.00D+00 NBFU=    55
 Initial guess from the checkpoint file:  "Z:\Desktop\0620\CO(1)H(1)1_3.chk"
 B after Tr=     0.000000    0.000000    0.000000
         Rot=    0.999997    0.002445   -0.000018    0.000015 Ang=   0.28 deg.
 Keep R1 ints in memory in canonical form, NReq=2064058.
 Requested convergence on RMS density matrix=1.00D-08 within 128 cycles.
 Requested convergence on MAX density matrix=1.00D-06.
 Requested convergence on             energy=1.00D-06.
 No special actions if energy rises.
 SCF Done:  E(RB3LYP) =  -189.733219367     A.U. after    8 cycles
            NFock=  8  Conv=0.17D-08     -V/T= 2.0084
 Calling FoFJK, ICntrl=      2127 FMM=F ISym2X=0 I1Cent= 0 IOpClX= 0 NMat=1 NMatS=1 NMatT=0.
 ***** Axes restored to original set *****
 -------------------------------------------------------------------
 Center     Atomic                   Forces (Hartrees/Bohr)
 Number     Number              X              Y              Z
 -------------------------------------------------------------------
      1        6           0.000198773    0.000005611    0.000042177
      2        8          -0.000180551    0.000003942   -0.000016319
      3        8           0.000033382   -0.000057227    0.000102495
      4        1          -0.000029257    0.000110387   -0.000113840
      5        1          -0.000022347   -0.000062712   -0.000014513
 -------------------------------------------------------------------
 Cartesian Forces:  Max     0.000198773 RMS     0.000089346

 GradGradGradGradGradGradGradGradGradGradGradGradGradGradGradGradGradGrad
 Berny optimization.
 Using GEDIIS/GDIIS optimizer.
 FormGI is forming the generalized inverse of G from B-inverse, IUseBI=4.
 Internal  Forces:  Max     0.000239262 RMS     0.000122702
 Search for a local minimum.
 Step number   3 out of a maximum of   20
 All quantities printed in internal units (Hartrees-Bohrs-Radians)
 Mixed Optimization -- En-DIIS/RFO-DIIS
 Swapping is turned off.
 Update second derivatives using D2CorX and points    1    2    3
 DE= -9.70D-07 DEPred=-5.83D-07 R= 1.66D+00
 Trust test= 1.66D+00 RLast= 1.30D-02 DXMaxT set to 3.00D-01
 The second derivative matrix:
                          R1        R2        R3        R4        A1
           R1           1.63463
           R2          -0.00422   0.02536
           R3          -0.03365   0.00065   0.56937
           R4           0.06078  -0.00146   0.00693   0.57781
           A1           0.06603   0.00539  -0.00492   0.02707   0.09724
           A2          -0.11907   0.00305   0.03659  -0.02646  -0.04285
           A3           0.06279   0.00386  -0.00445   0.02594  -0.04348
           D1           0.00665  -0.00038  -0.00051   0.00273   0.00548
           D2           0.01339   0.00078  -0.00148   0.00510  -0.00881
                          A2        A3        D1        D2
           A2           0.24598
           A3          -0.03958   0.22112
           D1          -0.00358   0.00469   0.00246
           D2          -0.00877  -0.00584   0.00096   0.01357
 ITU=  0  1  0
     Eigenvalues ---    0.00141   0.01041   0.02472   0.06937   0.21895
     Eigenvalues ---    0.25667   0.56794   0.58200   1.65607
 En-DIIS/RFO-DIIS/Sim-DIIS IScMMF=       -3 using points:     3    2    1
 RFO step:  Lambda=-3.37201043D-06.
 DidBck=F Rises=F RFO-DIIS coefs:    2.05978   -0.06017   -0.99962
 Iteration  1 RMS(Cart)=  0.00607027 RMS(Int)=  0.00008087
 Iteration  2 RMS(Cart)=  0.00007452 RMS(Int)=  0.00000001
 Iteration  3 RMS(Cart)=  0.00000001 RMS(Int)=  0.00000000
 Variable       Old X    -DE/DX   Delta X   Delta X   Delta X     New X
                                 (Linear)    (Quad)   (Total)
    R1        2.14766  -0.00014   0.00072  -0.00032   0.00040   2.14807
    R2        4.41928   0.00002   0.00199   0.00071   0.00270   4.42197
    R3        1.82546   0.00008  -0.00067   0.00076   0.00010   1.82555
    R4        1.82449   0.00000   0.00037   0.00022   0.00058   1.82507
    A1        2.53522  -0.00024  -0.00395  -0.00112  -0.00507   2.53015
    A2        1.80971   0.00012  -0.00528   0.00320  -0.00208   1.80764
    A3        2.22912  -0.00019  -0.00172  -0.00058  -0.00230   2.22683
    D1        0.22599   0.00000   0.02739  -0.00085   0.02654   0.25253
    D2        1.63750  -0.00004  -0.00547  -0.00259  -0.00805   1.62945
         Item               Value     Threshold  Converged?
 Maximum Force            0.000239     0.000450     YES
 RMS     Force            0.000123     0.000300     YES
 Maximum Displacement     0.011921     0.001800     NO 
 RMS     Displacement     0.006075     0.001200     NO 
 Predicted change in Energy=-9.051565D-07
 GradGradGradGradGradGradGradGradGradGradGradGradGradGradGradGradGradGrad

                          Input orientation:                          
 ---------------------------------------------------------------------
 Center     Atomic      Atomic             Coordinates (Angstroms)
 Number     Number       Type             X           Y           Z
 ---------------------------------------------------------------------
      1          6           0        0.924529    0.437142    0.052639
      2          8           0        1.813659   -0.267193   -0.021284
      3          8           0       -2.048136   -0.114397   -0.107644
      4          1           0       -1.404284    0.605779   -0.101731
      5          1           0       -2.298735   -0.201945    0.820947
 ---------------------------------------------------------------------
                    Distance matrix (angstroms):
                    1          2          3          4          5
     1  C    0.000000
     2  O    1.136708   0.000000
     3  O    3.027643   3.865781   0.000000
     4  H    2.340008   3.335223   0.966040   0.000000
     5  H    3.374635   4.198261   0.965788   1.517826   0.000000
 Stoichiometry    CH2O2
 Framework group  C1[X(CH2O2)]
 Deg. of freedom     9
 Full point group                 C1      NOp   1
 Largest Abelian subgroup         C1      NOp   1
 Largest concise Abelian subgroup C1      NOp   1
                         Standard orientation:                         
 ---------------------------------------------------------------------
 Center     Atomic      Atomic             Coordinates (Angstroms)
 Number     Number       Type             X           Y           Z
 ---------------------------------------------------------------------
      1          6           0        0.926075    0.439430    0.035751
      2          8           0        1.814840   -0.267667   -0.011322
      3          8           0       -2.046879   -0.116278   -0.103367
      4          1           0       -1.402657    0.603269   -0.124884
      5          1           0       -2.297488   -0.168286    0.827888
 ---------------------------------------------------------------------
 Rotational constants (GHZ):         102.5081292           3.6656167           3.5816421
 Standard basis: 6-31G(d,p) (6D, 7F)
 There are    55 symmetry adapted cartesian basis functions of A   symmetry.
 There are    55 symmetry adapted basis functions of A   symmetry.
    55 basis functions,    98 primitive gaussians,    55 cartesian basis functions
    12 alpha electrons       12 beta electrons
       nuclear repulsion energy        53.1856703657 Hartrees.
 NAtoms=    5 NActive=    5 NUniq=    5 SFac= 1.00D+00 NAtFMM=   60 NAOKFM=F Big=F
 Integral buffers will be    131072 words long.
 Raffenetti 2 integral format.
 Two-electron integral symmetry is turned on.
 One-electron integrals computed using PRISM.
 NBasis=    55 RedAO= T EigKep=  7.10D-03  NBF=    55
 NBsUse=    55 1.00D-06 EigRej= -1.00D+00 NBFU=    55
 Initial guess from the checkpoint file:  "Z:\Desktop\0620\CO(1)H(1)1_3.chk"
 B after Tr=     0.000000    0.000000    0.000000
         Rot=    0.999986    0.005347   -0.000045    0.000033 Ang=   0.61 deg.
 Keep R1 ints in memory in canonical form, NReq=2064058.
 Requested convergence on RMS density matrix=1.00D-08 within 128 cycles.
 Requested convergence on MAX density matrix=1.00D-06.
 Requested convergence on             energy=1.00D-06.
 No special actions if energy rises.
 SCF Done:  E(RB3LYP) =  -189.733220235     A.U. after    8 cycles
            NFock=  8  Conv=0.38D-08     -V/T= 2.0084
 Calling FoFJK, ICntrl=      2127 FMM=F ISym2X=0 I1Cent= 0 IOpClX= 0 NMat=1 NMatS=1 NMatT=0.
 ***** Axes restored to original set *****
 -------------------------------------------------------------------
 Center     Atomic                   Forces (Hartrees/Bohr)
 Number     Number              X              Y              Z
 -------------------------------------------------------------------
      1        6           0.000585847   -0.000326771   -0.000032220
      2        8          -0.000574809    0.000326833    0.000043409
      3        8           0.000064463    0.000045635    0.000508065
      4        1          -0.000023590    0.000108882   -0.000231420
      5        1          -0.000051912   -0.000154578   -0.000287834
 -------------------------------------------------------------------
 Cartesian Forces:  Max     0.000585847 RMS     0.000297760

 GradGradGradGradGradGradGradGradGradGradGradGradGradGradGradGradGradGrad
 Berny optimization.
 Using GEDIIS/GDIIS optimizer.
 FormGI is forming the generalized inverse of G from B-inverse, IUseBI=4.
 Internal  Forces:  Max     0.000654885 RMS     0.000287491
 Search for a local minimum.
 Step number   4 out of a maximum of   20
 All quantities printed in internal units (Hartrees-Bohrs-Radians)
 Mixed Optimization -- En-DIIS/RFO-DIIS
 Swapping is turned off.
 Update second derivatives using D2CorX and points    1    2    3    4
 DE= -8.68D-07 DEPred=-9.05D-07 R= 9.59D-01
 Trust test= 9.59D-01 RLast= 2.85D-02 DXMaxT set to 3.00D-01
 The second derivative matrix:
                          R1        R2        R3        R4        A1
           R1           1.57424
           R2          -0.00274   0.02533
           R3          -0.00458   0.00016   0.56612
           R4           0.05526  -0.00116   0.01806   0.58400
           A1           0.04990   0.00583   0.00355   0.02634   0.09198
           A2          -0.06999   0.00193   0.01943  -0.01686  -0.02881
           A3           0.04959   0.00429   0.00391   0.02646  -0.04820
           D1           0.00559  -0.00033   0.00062   0.00311   0.00513
           D2           0.00947   0.00087   0.00033   0.00472  -0.00993
                          A2        A3        D1        D2
           A2           0.21008
           A3          -0.02732   0.21719
           D1          -0.00238   0.00451   0.00249
           D2          -0.00554  -0.00686   0.00087   0.01332
 ITU=  0  0  1  0
     Eigenvalues ---    0.00140   0.01005   0.02467   0.06818   0.20534
     Eigenvalues ---    0.23911   0.55590   0.59528   1.58482
 En-DIIS/RFO-DIIS/Sim-DIIS IScMMF=       -3 using points:     4    3    2    1
 RFO step:  Lambda=-2.03518074D-06.
 DIIS inversion failure, remove point   4.
 DIIS inversion failure, remove point   3.
 RFO-DIIS uses    2 points instead of    4
 DidBck=F Rises=F RFO-DIIS coefs:    1.33366   -0.33366    0.00000    0.00000
 Iteration  1 RMS(Cart)=  0.00452439 RMS(Int)=  0.00001595
 Iteration  2 RMS(Cart)=  0.00001385 RMS(Int)=  0.00000000
 Iteration  3 RMS(Cart)=  0.00000000 RMS(Int)=  0.00000000
 Variable       Old X    -DE/DX   Delta X   Delta X   Delta X     New X
                                 (Linear)    (Quad)   (Total)
    R1        2.14807  -0.00065   0.00013  -0.00027  -0.00014   2.14793
    R2        4.42197   0.00001   0.00090   0.00128   0.00218   4.42416
    R3        1.82555   0.00007   0.00003   0.00011   0.00014   1.82569
    R4        1.82507  -0.00025   0.00019  -0.00025  -0.00005   1.82502
    A1        2.53015  -0.00021  -0.00169  -0.00285  -0.00455   2.52560
    A2        1.80764   0.00039  -0.00069   0.00143   0.00073   1.80837
    A3        2.22683  -0.00021  -0.00077  -0.00153  -0.00229   2.22453
    D1        0.25253  -0.00003   0.00886  -0.00228   0.00658   0.25911
    D2        1.62945  -0.00004  -0.00269  -0.00524  -0.00792   1.62152
         Item               Value     Threshold  Converged?
 Maximum Force            0.000655     0.000450     NO 
 RMS     Force            0.000287     0.000300     YES
 Maximum Displacement     0.008294     0.001800     NO 
 RMS     Displacement     0.004526     0.001200     NO 
 Predicted change in Energy=-1.017676D-06
 GradGradGradGradGradGradGradGradGradGradGradGradGradGradGradGradGradGrad

                          Input orientation:                          
 ---------------------------------------------------------------------
 Center     Atomic      Atomic             Coordinates (Angstroms)
 Number     Number       Type             X           Y           Z
 ---------------------------------------------------------------------
      1          6           0        0.924264    0.438801    0.053983
      2          8           0        1.810426   -0.269053   -0.020858
      3          8           0       -2.047859   -0.114253   -0.107685
      4          1           0       -1.405453    0.607331   -0.104332
      5          1           0       -2.294346   -0.203440    0.821820
 ---------------------------------------------------------------------
                    Distance matrix (angstroms):
                    1          2          3          4          5
     1  C    0.000000
     2  O    1.136636   0.000000
     3  O    3.027461   3.862365   0.000000
     4  H    2.341164   3.334201   0.966115   0.000000
     5  H    3.370682   4.190891   0.965759   1.518301   0.000000
 Stoichiometry    CH2O2
 Framework group  C1[X(CH2O2)]
 Deg. of freedom     9
 Full point group                 C1      NOp   1
 Largest Abelian subgroup         C1      NOp   1
 Largest concise Abelian subgroup C1      NOp   1
                         Standard orientation:                         
 ---------------------------------------------------------------------
 Center     Atomic      Atomic             Coordinates (Angstroms)
 Number     Number       Type             X           Y           Z
 ---------------------------------------------------------------------
      1          6           0        0.926653    0.441450    0.036482
      2          8           0        1.812573   -0.269011   -0.011814
      3          8           0       -2.045691   -0.116370   -0.103254
      4          1           0       -1.403062    0.604619   -0.127381
      5          1           0       -2.291911   -0.170273    0.829033
 ---------------------------------------------------------------------
 Rotational constants (GHZ):         101.7096298           3.6714098           3.5863313
 Standard basis: 6-31G(d,p) (6D, 7F)
 There are    55 symmetry adapted cartesian basis functions of A   symmetry.
 There are    55 symmetry adapted basis functions of A   symmetry.
    55 basis functions,    98 primitive gaussians,    55 cartesian basis functions
    12 alpha electrons       12 beta electrons
       nuclear repulsion energy        53.1976202490 Hartrees.
 NAtoms=    5 NActive=    5 NUniq=    5 SFac= 1.00D+00 NAtFMM=   60 NAOKFM=F Big=F
 Integral buffers will be    131072 words long.
 Raffenetti 2 integral format.
 Two-electron integral symmetry is turned on.
 One-electron integrals computed using PRISM.
 NBasis=    55 RedAO= T EigKep=  7.11D-03  NBF=    55
 NBsUse=    55 1.00D-06 EigRej= -1.00D+00 NBFU=    55
 Initial guess from the checkpoint file:  "Z:\Desktop\0620\CO(1)H(1)1_3.chk"
 B after Tr=     0.000000    0.000000    0.000000
         Rot=    1.000000   -0.000388   -0.000055    0.000055 Ang=  -0.05 deg.
 Keep R1 ints in memory in canonical form, NReq=2064058.
 Requested convergence on RMS density matrix=1.00D-08 within 128 cycles.
 Requested convergence on MAX density matrix=1.00D-06.
 Requested convergence on             energy=1.00D-06.
 No special actions if energy rises.
 SCF Done:  E(RB3LYP) =  -189.733222082     A.U. after    8 cycles
            NFock=  8  Conv=0.27D-08     -V/T= 2.0084
 Calling FoFJK, ICntrl=      2127 FMM=F ISym2X=0 I1Cent= 0 IOpClX= 0 NMat=1 NMatS=1 NMatT=0.
 ***** Axes restored to original set *****
 -------------------------------------------------------------------
 Center     Atomic                   Forces (Hartrees/Bohr)
 Number     Number              X              Y              Z
 -------------------------------------------------------------------
      1        6           0.000422633   -0.000229226   -0.000034476
      2        8          -0.000421820    0.000220357    0.000037764
      3        8           0.000120942    0.000052346    0.000399655
      4        1          -0.000110031    0.000047403   -0.000138311
      5        1          -0.000011725   -0.000090880   -0.000264632
 -------------------------------------------------------------------
 Cartesian Forces:  Max     0.000422633 RMS     0.000223498

 GradGradGradGradGradGradGradGradGradGradGradGradGradGradGradGradGradGrad
 Berny optimization.
 Using GEDIIS/GDIIS optimizer.
 FormGI is forming the generalized inverse of G from B-inverse, IUseBI=4.
 Internal  Forces:  Max     0.000468517 RMS     0.000219979
 Search for a local minimum.
 Step number   5 out of a maximum of   20
 All quantities printed in internal units (Hartrees-Bohrs-Radians)
 Mixed Optimization -- En-DIIS/RFO-DIIS
 Swapping is turned off.
 Update second derivatives using D2CorX and points    1    2    3    4    5
 DE= -1.85D-06 DEPred=-1.02D-06 R= 1.82D+00
 TightC=F SS=  1.41D+00  RLast= 1.17D-02 DXNew= 5.0454D-01 3.5160D-02
 Trust test= 1.82D+00 RLast= 1.17D-02 DXMaxT set to 3.00D-01
 The second derivative matrix:
                          R1        R2        R3        R4        A1
           R1           1.44130
           R2          -0.00188   0.02563
           R3          -0.01139   0.00348   0.60367
           R4          -0.00952   0.00150   0.04106   0.57077
           A1          -0.00266   0.00640   0.00280   0.00200   0.07108
           A2           0.00360   0.00251   0.03628   0.02823   0.00070
           A3          -0.01391   0.00663   0.02101   0.00938  -0.07213
           D1          -0.00307   0.00019   0.00534   0.00244   0.00204
           D2           0.00136   0.00068  -0.00279  -0.00109  -0.01336
                          A2        A3        D1        D2
           A2           0.17425
           A3           0.01411   0.19891
           D1           0.00408   0.00337   0.00266
           D2          -0.00193  -0.01234  -0.00005   0.01302
 ITU=  1  0  0  1  0
     Eigenvalues ---    0.00128   0.00431   0.02428   0.04905   0.16814
     Eigenvalues ---    0.23228   0.54306   0.63716   1.44175
 En-DIIS/RFO-DIIS/Sim-DIIS IScMMF=       -3 using points:     5    4    3    2    1
 RFO step:  Lambda=-1.05109849D-05.
 DIIS inversion failure, remove point   5.
 DIIS inversion failure, remove point   4.
 RFO-DIIS uses    3 points instead of    5
 DidBck=F Rises=F RFO-DIIS coefs:    2.72135   -2.00000    0.27865    0.00000    0.00000
 Iteration  1 RMS(Cart)=  0.03108896 RMS(Int)=  0.00055411
 Iteration  2 RMS(Cart)=  0.00055328 RMS(Int)=  0.00000015
 Iteration  3 RMS(Cart)=  0.00000013 RMS(Int)=  0.00000000
 Variable       Old X    -DE/DX   Delta X   Delta X   Delta X     New X
                                 (Linear)    (Quad)   (Total)
    R1        2.14793  -0.00047  -0.00035  -0.00008  -0.00043   2.14750
    R2        4.42416   0.00000   0.00301   0.00956   0.01256   4.43672
    R3        1.82569  -0.00004   0.00022  -0.00023  -0.00002   1.82568
    R4        1.82502  -0.00024  -0.00026  -0.00015  -0.00041   1.82461
    A1        2.52560  -0.00019  -0.00641  -0.02361  -0.03002   2.49558
    A2        1.80837   0.00025   0.00184  -0.00026   0.00159   1.80995
    A3        2.22453  -0.00023  -0.00331  -0.01281  -0.01612   2.20841
    D1        0.25911  -0.00003   0.00393   0.02131   0.02524   0.28435
    D2        1.62152  -0.00003  -0.01140  -0.03699  -0.04839   1.57314
         Item               Value     Threshold  Converged?
 Maximum Force            0.000469     0.000450     NO 
 RMS     Force            0.000220     0.000300     YES
 Maximum Displacement     0.059672     0.001800     NO 
 RMS     Displacement     0.031220     0.001200     NO 
 Predicted change in Energy=-5.273646D-06
 GradGradGradGradGradGradGradGradGradGradGradGradGradGradGradGradGradGrad

                          Input orientation:                          
 ---------------------------------------------------------------------
 Center     Atomic      Atomic             Coordinates (Angstroms)
 Number     Number       Type             X           Y           Z
 ---------------------------------------------------------------------
      1          6           0        0.921411    0.450329    0.059873
      2          8           0        1.787041   -0.282070   -0.015640
      3          8           0       -2.045102   -0.113094   -0.108652
      4          1           0       -1.413549    0.617926   -0.119293
      5          1           0       -2.262769   -0.213705    0.826639
 ---------------------------------------------------------------------
                    Distance matrix (angstroms):
                    1          2          3          4          5
     1  C    0.000000
     2  O    1.136409   0.000000
     3  O    3.024243   3.836994   0.000000
     4  H    2.347813   3.326336   0.966107   0.000000
     5  H    3.341837   4.137036   0.965542   1.519070   0.000000
 Stoichiometry    CH2O2
 Framework group  C1[X(CH2O2)]
 Deg. of freedom     9
 Full point group                 C1      NOp   1
 Largest Abelian subgroup         C1      NOp   1
 Largest concise Abelian subgroup C1      NOp   1
                         Standard orientation:                         
 ---------------------------------------------------------------------
 Center     Atomic      Atomic             Coordinates (Angstroms)
 Number     Number       Type             X           Y           Z
 ---------------------------------------------------------------------
      1          6           0        0.929858    0.455130    0.041297
      2          8           0        1.796169   -0.278169   -0.015304
      3          8           0       -2.036404   -0.116276   -0.103029
      4          1           0       -1.405762    0.614842   -0.136465
      5          1           0       -2.251508   -0.190055    0.835351
 ---------------------------------------------------------------------
 Rotational constants (GHZ):          96.5417305           3.7156038           3.6224400
 Standard basis: 6-31G(d,p) (6D, 7F)
 There are    55 symmetry adapted cartesian basis functions of A   symmetry.
 There are    55 symmetry adapted basis functions of A   symmetry.
    55 basis functions,    98 primitive gaussians,    55 cartesian basis functions
    12 alpha electrons       12 beta electrons
       nuclear repulsion energy        53.2902665435 Hartrees.
 NAtoms=    5 NActive=    5 NUniq=    5 SFac= 1.00D+00 NAtFMM=   60 NAOKFM=F Big=F
 Integral buffers will be    131072 words long.
 Raffenetti 2 integral format.
 Two-electron integral symmetry is turned on.
 One-electron integrals computed using PRISM.
 NBasis=    55 RedAO= T EigKep=  7.18D-03  NBF=    55
 NBsUse=    55 1.00D-06 EigRej= -1.00D+00 NBFU=    55
 Initial guess from the checkpoint file:  "Z:\Desktop\0620\CO(1)H(1)1_3.chk"
 B after Tr=     0.000000    0.000000    0.000000
         Rot=    0.999990   -0.004389   -0.000398    0.000364 Ang=  -0.51 deg.
 ExpMin= 1.61D-01 ExpMax= 5.48D+03 ExpMxC= 8.25D+02 IAcc=3 IRadAn=         5 AccDes= 0.00D+00
 Harris functional with IExCor=  402 and IRadAn=       5 diagonalized for initial guess.
 HarFok:  IExCor=  402 AccDes= 0.00D+00 IRadAn=         5 IDoV= 1 UseB2=F ITyADJ=14
 ICtDFT=  3500011 ScaDFX=  1.000000  1.000000  1.000000  1.000000
 FoFCou: FMM=F IPFlag=           0 FMFlag=      100000 FMFlg1=           0
         NFxFlg=           0 DoJE=T BraDBF=F KetDBF=T FulRan=T
         wScrn=  0.000000 ICntrl=       500 IOpCl=  0 I1Cent=   200000004 NGrid=           0
         NMat0=    1 NMatS0=      1 NMatT0=    0 NMatD0=    1 NMtDS0=    0 NMtDT0=    0
 Petite list used in FoFCou.
 Keep R1 ints in memory in canonical form, NReq=2064058.
 Requested convergence on RMS density matrix=1.00D-08 within 128 cycles.
 Requested convergence on MAX density matrix=1.00D-06.
 Requested convergence on             energy=1.00D-06.
 No special actions if energy rises.
 Integral accuracy reduced to 1.0D-05 until final iterations.
 Initial convergence to 1.0D-05 achieved.  Increase integral accuracy.
 SCF Done:  E(RB3LYP) =  -189.733228270     A.U. after   10 cycles
            NFock= 10  Conv=0.46D-08     -V/T= 2.0084
 Calling FoFJK, ICntrl=      2127 FMM=F ISym2X=0 I1Cent= 0 IOpClX= 0 NMat=1 NMatS=1 NMatT=0.
 ***** Axes restored to original set *****
 -------------------------------------------------------------------
 Center     Atomic                   Forces (Hartrees/Bohr)
 Number     Number              X              Y              Z
 -------------------------------------------------------------------
      1        6          -0.000161272    0.000056048   -0.000051931
      2        8           0.000113989   -0.000125355    0.000016606
      3        8           0.000265638   -0.000078850   -0.000033572
      4        1          -0.000239259    0.000071051    0.000130762
      5        1           0.000020904    0.000077106   -0.000061865
 -------------------------------------------------------------------
 Cartesian Forces:  Max     0.000265638 RMS     0.000123380

 GradGradGradGradGradGradGradGradGradGradGradGradGradGradGradGradGradGrad
 Berny optimization.
 Using GEDIIS/GDIIS optimizer.
 FormGI is forming the generalized inverse of G from B-inverse, IUseBI=4.
 Internal  Forces:  Max     0.000359855 RMS     0.000155891
 Search for a local minimum.
 Step number   6 out of a maximum of   20
 All quantities printed in internal units (Hartrees-Bohrs-Radians)
 Mixed Optimization -- En-DIIS/RFO-DIIS
 Swapping is turned off.
 Update second derivatives using D2CorX and points    1    2    3    4    5
                                                      6
 DE= -6.19D-06 DEPred=-5.27D-06 R= 1.17D+00
 TightC=F SS=  1.41D+00  RLast= 6.56D-02 DXNew= 5.0454D-01 1.9673D-01
 Trust test= 1.17D+00 RLast= 6.56D-02 DXMaxT set to 3.00D-01
 The second derivative matrix:
                          R1        R2        R3        R4        A1
           R1           1.43855
           R2          -0.00342   0.02608
           R3          -0.01913   0.00457   0.60795
           R4          -0.01614   0.00166   0.04083   0.56783
           A1           0.00062   0.00552  -0.00108   0.00044   0.07026
           A2           0.00412   0.00309   0.04109   0.03180  -0.00145
           A3          -0.01964   0.00870   0.02340   0.00868  -0.07935
           D1          -0.00496   0.00055   0.00599   0.00212   0.00121
           D2           0.00337  -0.00011  -0.00480  -0.00174  -0.01195
                          A2        A3        D1        D2
           A2           0.17549
           A3           0.01475   0.20428
           D1           0.00483   0.00482   0.00288
           D2          -0.00260  -0.01608  -0.00071   0.01436
 ITU=  1  1  0  0  1  0
     Eigenvalues ---    0.00147   0.00365   0.02414   0.04621   0.16798
     Eigenvalues ---    0.24186   0.54255   0.64012   1.43970
 En-DIIS/RFO-DIIS/Sim-DIIS IScMMF=       -3 using points:     6    5    4    3    2    1
 RFO step:  Lambda=-1.82885539D-06.
 DIIS inversion failure, remove point   6.
 DIIS inversion failure, remove point   5.
 DIIS inversion failure, remove point   4.
 DIIS inversion failure, remove point   3.
 RFO-DIIS uses    2 points instead of    6
 DidBck=F Rises=F RFO-DIIS coefs:    1.17677   -0.17677    0.00000    0.00000    0.00000
                  RFO-DIIS coefs:    0.00000
 Iteration  1 RMS(Cart)=  0.00933753 RMS(Int)=  0.00004291
 Iteration  2 RMS(Cart)=  0.00004577 RMS(Int)=  0.00000000
 Iteration  3 RMS(Cart)=  0.00000000 RMS(Int)=  0.00000000
 Variable       Old X    -DE/DX   Delta X   Delta X   Delta X     New X
                                 (Linear)    (Quad)   (Total)
    R1        2.14750   0.00017  -0.00008   0.00013   0.00006   2.14756
    R2        4.43672  -0.00004   0.00222  -0.00003   0.00219   4.43892
    R3        1.82568  -0.00019   0.00000  -0.00014  -0.00014   1.82554
    R4        1.82461  -0.00007  -0.00007   0.00004  -0.00003   1.82458
    A1        2.49558  -0.00003  -0.00531  -0.00351  -0.00881   2.48676
    A2        1.80995  -0.00010   0.00028  -0.00052  -0.00024   1.80972
    A3        2.20841  -0.00036  -0.00285  -0.00304  -0.00589   2.20251
    D1        0.28435  -0.00004   0.00446  -0.00709  -0.00263   0.28172
    D2        1.57314   0.00007  -0.00855  -0.00053  -0.00909   1.56405
         Item               Value     Threshold  Converged?
 Maximum Force            0.000360     0.000450     YES
 RMS     Force            0.000156     0.000300     YES
 Maximum Displacement     0.016872     0.001800     NO 
 RMS     Displacement     0.009359     0.001200     NO 
 Predicted change in Energy=-9.145141D-07
 GradGradGradGradGradGradGradGradGradGradGradGradGradGradGradGradGradGrad

                          Input orientation:                          
 ---------------------------------------------------------------------
 Center     Atomic      Atomic             Coordinates (Angstroms)
 Number     Number       Type             X           Y           Z
 ---------------------------------------------------------------------
      1          6           0        0.920251    0.454173    0.059683
      2          8           0        1.779285   -0.286276   -0.013031
      3          8           0       -2.042968   -0.113116   -0.109038
      4          1           0       -1.415694    0.621442   -0.122139
      5          1           0       -2.253841   -0.216838    0.827453
 ---------------------------------------------------------------------
                    Distance matrix (angstroms):
                    1          2          3          4          5
     1  C    0.000000
     2  O    1.136439   0.000000
     3  O    3.021746   3.827378   0.000000
     4  H    2.348973   3.323214   0.966033   0.000000
     5  H    3.333854   4.120357   0.965526   1.518857   0.000000
 Stoichiometry    CH2O2
 Framework group  C1[X(CH2O2)]
 Deg. of freedom     9
 Full point group                 C1      NOp   1
 Largest Abelian subgroup         C1      NOp   1
 Largest concise Abelian subgroup C1      NOp   1
                         Standard orientation:                         
 ---------------------------------------------------------------------
 Center     Atomic      Atomic             Coordinates (Angstroms)
 Number     Number       Type             X           Y           Z
 ---------------------------------------------------------------------
      1          6           0        0.930426    0.459478    0.042576
      2          8           0        1.790402   -0.281107   -0.016309
      3          8           0       -2.032425   -0.116018   -0.103247
      4          1           0       -1.406381    0.619017   -0.135059
      5          1           0       -2.239989   -0.198882    0.836056
 ---------------------------------------------------------------------
 Rotational constants (GHZ):          94.9962542           3.7327075           3.6366054
 Standard basis: 6-31G(d,p) (6D, 7F)
 There are    55 symmetry adapted cartesian basis functions of A   symmetry.
 There are    55 symmetry adapted basis functions of A   symmetry.
    55 basis functions,    98 primitive gaussians,    55 cartesian basis functions
    12 alpha electrons       12 beta electrons
       nuclear repulsion energy        53.3262112135 Hartrees.
 NAtoms=    5 NActive=    5 NUniq=    5 SFac= 1.00D+00 NAtFMM=   60 NAOKFM=F Big=F
 Integral buffers will be    131072 words long.
 Raffenetti 2 integral format.
 Two-electron integral symmetry is turned on.
 One-electron integrals computed using PRISM.
 NBasis=    55 RedAO= T EigKep=  7.20D-03  NBF=    55
 NBsUse=    55 1.00D-06 EigRej= -1.00D+00 NBFU=    55
 Initial guess from the checkpoint file:  "Z:\Desktop\0620\CO(1)H(1)1_3.chk"
 B after Tr=     0.000000    0.000000    0.000000
         Rot=    0.999998   -0.002077   -0.000102    0.000111 Ang=  -0.24 deg.
 Keep R1 ints in memory in canonical form, NReq=2064058.
 Requested convergence on RMS density matrix=1.00D-08 within 128 cycles.
 Requested convergence on MAX density matrix=1.00D-06.
 Requested convergence on             energy=1.00D-06.
 No special actions if energy rises.
 SCF Done:  E(RB3LYP) =  -189.733229874     A.U. after    8 cycles
            NFock=  8  Conv=0.49D-08     -V/T= 2.0084
 Calling FoFJK, ICntrl=      2127 FMM=F ISym2X=0 I1Cent= 0 IOpClX= 0 NMat=1 NMatS=1 NMatT=0.
 ***** Axes restored to original set *****
 -------------------------------------------------------------------
 Center     Atomic                   Forces (Hartrees/Bohr)
 Number     Number              X              Y              Z
 -------------------------------------------------------------------
      1        6          -0.000148675    0.000002127   -0.000055721
      2        8           0.000098274   -0.000087191    0.000016668
      3        8           0.000264041   -0.000129664   -0.000040989
      4        1          -0.000207086    0.000144004    0.000118793
      5        1          -0.000006554    0.000070724   -0.000038751
 -------------------------------------------------------------------
 Cartesian Forces:  Max     0.000264041 RMS     0.000119789

 GradGradGradGradGradGradGradGradGradGradGradGradGradGradGradGradGradGrad
 Berny optimization.
 Using GEDIIS/GDIIS optimizer.
 FormGI is forming the generalized inverse of G from B-inverse, IUseBI=4.
 Internal  Forces:  Max     0.000386372 RMS     0.000149727
 Search for a local minimum.
 Step number   7 out of a maximum of   20
 All quantities printed in internal units (Hartrees-Bohrs-Radians)
 Mixed Optimization -- En-DIIS/RFO-DIIS
 Swapping is turned off.
 Update second derivatives using D2CorX and points    1    2    3    4    5
                                                      6    7
 DE= -1.60D-06 DEPred=-9.15D-07 R= 1.75D+00
 TightC=F SS=  1.41D+00  RLast= 1.44D-02 DXNew= 5.0454D-01 4.3139D-02
 Trust test= 1.75D+00 RLast= 1.44D-02 DXMaxT set to 3.00D-01
 The second derivative matrix:
                          R1        R2        R3        R4        A1
           R1           1.43007
           R2          -0.00008   0.02523
           R3          -0.01237  -0.00018   0.59879
           R4          -0.01391  -0.00050   0.03607   0.56501
           A1           0.00216   0.00403   0.00065   0.00199   0.07410
           A2           0.00757   0.00082   0.03849   0.03076  -0.00151
           A3           0.01045   0.00169  -0.01547  -0.00785  -0.09151
           D1          -0.00258  -0.00044   0.00268   0.00056   0.00104
           D2          -0.00344   0.00094   0.00519   0.00273  -0.00735
                          A2        A3        D1        D2
           A2           0.17500
           A3          -0.00565   0.14605
           D1           0.00338  -0.00305   0.00205
           D2           0.00238  -0.00709   0.00109   0.01411
 ITU=  1  1  1  0  0  1  0
     Eigenvalues ---    0.00178   0.00218   0.02172   0.02697   0.16958
     Eigenvalues ---    0.20798   0.54213   0.62744   1.43063
 En-DIIS/RFO-DIIS/Sim-DIIS IScMMF=       -3 using points:     7    6    5    4    3    2    1
 RFO step:  Lambda=-7.60802441D-06.
 DIIS inversion failure, remove point   7.
 DIIS inversion failure, remove point   6.
 DIIS inversion failure, remove point   5.
 DIIS inversion failure, remove point   4.
 RFO-DIIS uses    3 points instead of    7
 DidBck=F Rises=F RFO-DIIS coefs:    2.67396   -2.00000    0.32604    0.00000    0.00000
                  RFO-DIIS coefs:    0.00000    0.00000
 Iteration  1 RMS(Cart)=  0.03245831 RMS(Int)=  0.00065456
 Iteration  2 RMS(Cart)=  0.00058956 RMS(Int)=  0.00000022
 Iteration  3 RMS(Cart)=  0.00000017 RMS(Int)=  0.00000000
 Variable       Old X    -DE/DX   Delta X   Delta X   Delta X     New X
                                 (Linear)    (Quad)   (Total)
    R1        2.14756   0.00013   0.00023   0.00002   0.00025   2.14781
    R2        4.43892  -0.00005  -0.00043   0.00440   0.00397   4.44289
    R3        1.82554  -0.00012  -0.00023  -0.00024  -0.00047   1.82507
    R4        1.82458  -0.00004   0.00008  -0.00018  -0.00010   1.82448
    A1        2.48676   0.00001  -0.00496  -0.02611  -0.03108   2.45569
    A2        1.80972  -0.00008  -0.00092   0.00020  -0.00071   1.80900
    A3        2.20251  -0.00039  -0.00461  -0.02017  -0.02478   2.17774
    D1        0.28172  -0.00003  -0.01263  -0.01504  -0.02767   0.25404
    D2        1.56405   0.00010   0.00057  -0.01537  -0.01481   1.54924
         Item               Value     Threshold  Converged?
 Maximum Force            0.000386     0.000450     YES
 RMS     Force            0.000150     0.000300     YES
 Maximum Displacement     0.055016     0.001800     NO 
 RMS     Displacement     0.032741     0.001200     NO 
 Predicted change in Energy=-3.538943D-06
 GradGradGradGradGradGradGradGradGradGradGradGradGradGradGradGradGradGrad

                          Input orientation:                          
 ---------------------------------------------------------------------
 Center     Atomic      Atomic             Coordinates (Angstroms)
 Number     Number       Type             X           Y           Z
 ---------------------------------------------------------------------
      1          6           0        0.915925    0.468400    0.055128
      2          8           0        1.750172   -0.301339   -0.002584
      3          8           0       -2.030720   -0.115055   -0.110126
      4          1           0       -1.422096    0.634604   -0.128156
      5          1           0       -2.226248   -0.227224    0.828665
 ---------------------------------------------------------------------
                    Distance matrix (angstroms):
                    1          2          3          4          5
     1  C    0.000000
     2  O    1.136573   0.000000
     3  O    3.008395   3.787005   0.000000
     4  H    2.351076   3.309841   0.965783   0.000000
     5  H    3.309910   4.063051   0.965474   1.518194   0.000000
 Stoichiometry    CH2O2
 Framework group  C1[X(CH2O2)]
 Deg. of freedom     9
 Full point group                 C1      NOp   1
 Largest Abelian subgroup         C1      NOp   1
 Largest concise Abelian subgroup C1      NOp   1
                         Standard orientation:                         
 ---------------------------------------------------------------------
 Center     Atomic      Atomic             Coordinates (Angstroms)
 Number     Number       Type             X           Y           Z
 ---------------------------------------------------------------------
      1          6           0        0.931508    0.475416    0.045817
      2          8           0        1.767413   -0.291951   -0.019051
      3          8           0       -2.014508   -0.115264   -0.104281
      4          1           0       -1.407955    0.636042   -0.123512
      5          1           0       -2.204335   -0.230810    0.835269
 ---------------------------------------------------------------------
 Rotational constants (GHZ):          89.6862134           3.8055573           3.6972962
 Standard basis: 6-31G(d,p) (6D, 7F)
 There are    55 symmetry adapted cartesian basis functions of A   symmetry.
 There are    55 symmetry adapted basis functions of A   symmetry.
    55 basis functions,    98 primitive gaussians,    55 cartesian basis functions
    12 alpha electrons       12 beta electrons
       nuclear repulsion energy        53.4820536737 Hartrees.
 NAtoms=    5 NActive=    5 NUniq=    5 SFac= 1.00D+00 NAtFMM=   60 NAOKFM=F Big=F
 Integral buffers will be    131072 words long.
 Raffenetti 2 integral format.
 Two-electron integral symmetry is turned on.
 One-electron integrals computed using PRISM.
 NBasis=    55 RedAO= T EigKep=  7.26D-03  NBF=    55
 NBsUse=    55 1.00D-06 EigRej= -1.00D+00 NBFU=    55
 Initial guess from the checkpoint file:  "Z:\Desktop\0620\CO(1)H(1)1_3.chk"
 B after Tr=     0.000000    0.000000    0.000000
         Rot=    0.999974   -0.007133   -0.000263    0.000420 Ang=  -0.82 deg.
 ExpMin= 1.61D-01 ExpMax= 5.48D+03 ExpMxC= 8.25D+02 IAcc=3 IRadAn=         5 AccDes= 0.00D+00
 Harris functional with IExCor=  402 and IRadAn=       5 diagonalized for initial guess.
 HarFok:  IExCor=  402 AccDes= 0.00D+00 IRadAn=         5 IDoV= 1 UseB2=F ITyADJ=14
 ICtDFT=  3500011 ScaDFX=  1.000000  1.000000  1.000000  1.000000
 FoFCou: FMM=F IPFlag=           0 FMFlag=      100000 FMFlg1=           0
         NFxFlg=           0 DoJE=T BraDBF=F KetDBF=T FulRan=T
         wScrn=  0.000000 ICntrl=       500 IOpCl=  0 I1Cent=   200000004 NGrid=           0
         NMat0=    1 NMatS0=      1 NMatT0=    0 NMatD0=    1 NMtDS0=    0 NMtDT0=    0
 Petite list used in FoFCou.
 Keep R1 ints in memory in canonical form, NReq=2064058.
 Requested convergence on RMS density matrix=1.00D-08 within 128 cycles.
 Requested convergence on MAX density matrix=1.00D-06.
 Requested convergence on             energy=1.00D-06.
 No special actions if energy rises.
 Integral accuracy reduced to 1.0D-05 until final iterations.
 Initial convergence to 1.0D-05 achieved.  Increase integral accuracy.
 SCF Done:  E(RB3LYP) =  -189.733236112     A.U. after   11 cycles
            NFock= 11  Conv=0.27D-08     -V/T= 2.0084
 Calling FoFJK, ICntrl=      2127 FMM=F ISym2X=0 I1Cent= 0 IOpClX= 0 NMat=1 NMatS=1 NMatT=0.
 ***** Axes restored to original set *****
 -------------------------------------------------------------------
 Center     Atomic                   Forces (Hartrees/Bohr)
 Number     Number              X              Y              Z
 -------------------------------------------------------------------
      1        6          -0.000038867   -0.000212469   -0.000040920
      2        8           0.000013429    0.000081348    0.000005388
      3        8           0.000221156   -0.000282256   -0.000038838
      4        1          -0.000098791    0.000388541    0.000026738
      5        1          -0.000096927    0.000024836    0.000047632
 -------------------------------------------------------------------
 Cartesian Forces:  Max     0.000388541 RMS     0.000154696

 GradGradGradGradGradGradGradGradGradGradGradGradGradGradGradGradGradGrad
 Berny optimization.
 Using GEDIIS/GDIIS optimizer.
 FormGI is forming the generalized inverse of G from B-inverse, IUseBI=4.
 Internal  Forces:  Max     0.000431950 RMS     0.000168492
 Search for a local minimum.
 Step number   8 out of a maximum of   20
 All quantities printed in internal units (Hartrees-Bohrs-Radians)
 Mixed Optimization -- En-DIIS/RFO-DIIS
 Swapping is turned off.
 Update second derivatives using D2CorX and points    1    2    3    4    5
                                                      6    7    8
 DE= -6.24D-06 DEPred=-3.54D-06 R= 1.76D+00
 TightC=F SS=  1.41D+00  RLast= 5.08D-02 DXNew= 5.0454D-01 1.5242D-01
 Trust test= 1.76D+00 RLast= 5.08D-02 DXMaxT set to 3.00D-01
 The second derivative matrix:
                          R1        R2        R3        R4        A1
           R1           1.43734
           R2           0.00002   0.02474
           R3          -0.02176   0.00011   0.61210
           R4          -0.01742  -0.00035   0.04167   0.56761
           A1          -0.00432   0.00518   0.01091   0.00682   0.08040
           A2           0.00086   0.00112   0.04602   0.03333   0.00319
           A3           0.02248  -0.00213  -0.02955  -0.01366  -0.09562
           D1          -0.00355  -0.00060   0.00467   0.00154   0.00306
           D2          -0.00844   0.00231   0.01202   0.00580  -0.00430
                          A2        A3        D1        D2
           A2           0.18064
           A3          -0.01301   0.12858
           D1           0.00429  -0.00648   0.00230
           D2           0.00557  -0.00394   0.00265   0.01428
 ITU=  1  1  1  1  0  0  1  0
     Eigenvalues ---    0.00140   0.00229   0.01696   0.02525   0.17158
     Eigenvalues ---    0.20281   0.54271   0.64617   1.43884
 En-DIIS/RFO-DIIS/Sim-DIIS IScMMF=       -3 using points:     8    7    6    5    4    3    2    1
 RFO step:  Lambda=-6.05748075D-06.
 DIIS inversion failure, remove point   8.
 DIIS inversion failure, remove point   7.
 DIIS inversion failure, remove point   6.
 DIIS inversion failure, remove point   5.
 DIIS inversion failure, remove point   4.
 RFO-DIIS uses    3 points instead of    8
 DidBck=F Rises=F RFO-DIIS coefs:    1.31144   -2.00000    1.68856    0.00000    0.00000
                  RFO-DIIS coefs:    0.00000    0.00000    0.00000
 Iteration  1 RMS(Cart)=  0.02126730 RMS(Int)=  0.00036963
 Iteration  2 RMS(Cart)=  0.00028492 RMS(Int)=  0.00000009
 Iteration  3 RMS(Cart)=  0.00000007 RMS(Int)=  0.00000000
 Variable       Old X    -DE/DX   Delta X   Delta X   Delta X     New X
                                 (Linear)    (Quad)   (Total)
    R1        2.14781  -0.00005  -0.00001   0.00020   0.00019   2.14800
    R2        4.44289  -0.00002  -0.00247   0.00274   0.00027   4.44316
    R3        1.82507   0.00012   0.00009  -0.00031  -0.00022   1.82485
    R4        1.82448   0.00006   0.00002  -0.00005  -0.00003   1.82445
    A1        2.45569   0.00015   0.00520  -0.02629  -0.02109   2.43460
    A2        1.80900   0.00005   0.00018  -0.00038  -0.00020   1.80880
    A3        2.17774  -0.00043   0.00223  -0.02398  -0.02175   2.15599
    D1        0.25404   0.00001  -0.00417  -0.02329  -0.02747   0.22658
    D2        1.54924   0.00015   0.01073  -0.00098   0.00975   1.55900
         Item               Value     Threshold  Converged?
 Maximum Force            0.000432     0.000450     YES
 RMS     Force            0.000168     0.000300     YES
 Maximum Displacement     0.038347     0.001800     NO 
 RMS     Displacement     0.021372     0.001200     NO 
 Predicted change in Energy=-2.651474D-06
 GradGradGradGradGradGradGradGradGradGradGradGradGradGradGradGradGradGrad

                          Input orientation:                          
 ---------------------------------------------------------------------
 Center     Atomic      Atomic             Coordinates (Angstroms)
 Number     Number       Type             X           Y           Z
 ---------------------------------------------------------------------
      1          6           0        0.913272    0.478196    0.050265
      2          8           0        1.729880   -0.311107    0.003641
      3          8           0       -2.016965   -0.119227   -0.110379
      4          1           0       -1.425283    0.643724   -0.128611
      5          1           0       -2.213870   -0.232201    0.828010
 ---------------------------------------------------------------------
                    Distance matrix (angstroms):
                    1          2          3          4          5
     1  C    0.000000
     2  O    1.136672   0.000000
     3  O    2.994831   3.753487   0.000000
     4  H    2.351219   3.299128   0.965668   0.000000
     5  H    3.299783   4.029761   0.965458   1.517972   0.000000
 Stoichiometry    CH2O2
 Framework group  C1[X(CH2O2)]
 Deg. of freedom     9
 Full point group                 C1      NOp   1
 Largest Abelian subgroup         C1      NOp   1
 Largest concise Abelian subgroup C1      NOp   1
                         Standard orientation:                         
 ---------------------------------------------------------------------
 Center     Atomic      Atomic             Coordinates (Angstroms)
 Number     Number       Type             X           Y           Z
 ---------------------------------------------------------------------
      1          6           0        0.931316    0.486618    0.046045
      2          8           0        1.749604   -0.299598   -0.019466
      3          8           0       -1.998409   -0.115829   -0.104890
      4          1           0       -1.408817    0.648900   -0.114189
      5          1           0       -2.188635   -0.245197    0.832760
 ---------------------------------------------------------------------
 Rotational constants (GHZ):          86.2715319           3.8669487           3.7487682
 Standard basis: 6-31G(d,p) (6D, 7F)
 There are    55 symmetry adapted cartesian basis functions of A   symmetry.
 There are    55 symmetry adapted basis functions of A   symmetry.
    55 basis functions,    98 primitive gaussians,    55 cartesian basis functions
    12 alpha electrons       12 beta electrons
       nuclear repulsion energy        53.6144791150 Hartrees.
 NAtoms=    5 NActive=    5 NUniq=    5 SFac= 1.00D+00 NAtFMM=   60 NAOKFM=F Big=F
 Integral buffers will be    131072 words long.
 Raffenetti 2 integral format.
 Two-electron integral symmetry is turned on.
 One-electron integrals computed using PRISM.
 NBasis=    55 RedAO= T EigKep=  7.29D-03  NBF=    55
 NBsUse=    55 1.00D-06 EigRej= -1.00D+00 NBFU=    55
 Initial guess from the checkpoint file:  "Z:\Desktop\0620\CO(1)H(1)1_3.chk"
 B after Tr=     0.000000    0.000000    0.000000
         Rot=    0.999997   -0.002528   -0.000035    0.000313 Ang=  -0.29 deg.
 ExpMin= 1.61D-01 ExpMax= 5.48D+03 ExpMxC= 8.25D+02 IAcc=3 IRadAn=         5 AccDes= 0.00D+00
 Harris functional with IExCor=  402 and IRadAn=       5 diagonalized for initial guess.
 HarFok:  IExCor=  402 AccDes= 0.00D+00 IRadAn=         5 IDoV= 1 UseB2=F ITyADJ=14
 ICtDFT=  3500011 ScaDFX=  1.000000  1.000000  1.000000  1.000000
 FoFCou: FMM=F IPFlag=           0 FMFlag=      100000 FMFlg1=           0
         NFxFlg=           0 DoJE=T BraDBF=F KetDBF=T FulRan=T
         wScrn=  0.000000 ICntrl=       500 IOpCl=  0 I1Cent=   200000004 NGrid=           0
         NMat0=    1 NMatS0=      1 NMatT0=    0 NMatD0=    1 NMtDS0=    0 NMtDT0=    0
 Petite list used in FoFCou.
[...]
 DE= -3.25D-07 DEPred=-2.66D-07 R= 1.22D+00
 Trust test= 1.22D+00 RLast= 7.44D-03 DXMaxT set to 3.00D-01
 The second derivative matrix:
                          R1        R2        R3        R4        A1
           R1           1.45727
           R2           0.00775   0.00807
           R3          -0.03491  -0.00478   0.61679
           R4          -0.01889  -0.00232   0.04051   0.56680
           A1          -0.00405  -0.00224   0.00121   0.00170   0.01056
           A2          -0.01253  -0.00497   0.05263   0.03264   0.00261
           A3           0.01503   0.00814  -0.00609  -0.00228  -0.00657
           D1          -0.00516  -0.00175   0.00591   0.00194   0.00067
           D2          -0.00090  -0.00090   0.00136   0.00068   0.00015
                          A2        A3        D1        D2
           A2           0.18956
           A3          -0.00617   0.01258
           D1           0.00483  -0.00173   0.00273
           D2          -0.00093  -0.00124   0.00113   0.00362
 ITU=  0  0  1  1  1  1  1  1  1  1
     Eigenvalues ---    0.00104   0.00188   0.00384   0.00773   0.02222
     Eigenvalues ---    0.18156   0.54422   0.64587   1.45962
 En-DIIS/RFO-DIIS/Sim-DIIS IScMMF=       -3 using points:    17   16   15   14   13   12   11   10    9    8
 RFO step:  Lambda=-2.54099198D-07.
 DIIS inversion failure, remove point  10.
 DIIS inversion failure, remove point   9.
 DIIS inversion failure, remove point   8.
 DIIS inversion failure, remove point   7.
 DIIS inversion failure, remove point   6.
 DIIS inversion failure, remove point   5.
 RFO-DIIS uses    4 points instead of   10
 DidBck=F Rises=F RFO-DIIS coefs:    1.69943   -0.76356   -0.08008    0.14422    0.00000
                  RFO-DIIS coefs:    0.00000    0.00000    0.00000    0.00000    0.00000
 Iteration  1 RMS(Cart)=  0.00262093 RMS(Int)=  0.00000548
 Iteration  2 RMS(Cart)=  0.00000491 RMS(Int)=  0.00000000
 Iteration  3 RMS(Cart)=  0.00000000 RMS(Int)=  0.00000000
 Variable       Old X    -DE/DX   Delta X   Delta X   Delta X     New X
                                 (Linear)    (Quad)   (Total)
    R1        2.14857  -0.00004  -0.00001  -0.00001  -0.00003   2.14855
    R2        4.57305  -0.00004  -0.00782  -0.00085  -0.00867   4.56438
    R3        1.82497   0.00005   0.00005   0.00004   0.00009   1.82506
    R4        1.82482   0.00002   0.00001   0.00001   0.00002   1.82484
    A1        2.39446   0.00002   0.00272   0.00020   0.00292   2.39738
    A2        1.80882   0.00003  -0.00002   0.00005   0.00003   1.80885
    A3        2.01266  -0.00004   0.00400  -0.00047   0.00353   2.01619
    D1        0.24175   0.00001  -0.00086   0.00240   0.00154   0.24329
    D2        1.59193   0.00000   0.00028  -0.00058  -0.00030   1.59163
         Item               Value     Threshold  Converged?
 Maximum Force            0.000054     0.000450     YES
 RMS     Force            0.000033     0.000300     YES
 Maximum Displacement     0.004975     0.001800     NO 
 RMS     Displacement     0.002622     0.001200     NO 
 Predicted change in Energy=-1.149597D-07
 GradGradGradGradGradGradGradGradGradGradGradGradGradGradGradGradGradGrad

                          Input orientation:                          
 ---------------------------------------------------------------------
 Center     Atomic      Atomic             Coordinates (Angstroms)
 Number     Number       Type             X           Y           Z
 ---------------------------------------------------------------------
      1          6           0        0.918453    0.490028    0.058718
      2          8           0        1.696191   -0.337808    0.008763
      3          8           0       -1.971268   -0.141091   -0.108174
      4          1           0       -1.479903    0.689464   -0.146494
      5          1           0       -2.176439   -0.241207    0.830115
 ---------------------------------------------------------------------
                    Distance matrix (angstroms):
                    1          2          3          4          5
     1  C    0.000000
     2  O    1.136962   0.000000
     3  O    2.962541   3.674592   0.000000
     4  H    2.415367   3.341700   0.965779   0.000000
     5  H    3.272325   3.959951   0.965663   1.518248   0.000000
 Stoichiometry    CH2O2
 Framework group  C1[X(CH2O2)]
 Deg. of freedom     9
 Full point group                 C1      NOp   1
 Largest Abelian subgroup         C1      NOp   1
 Largest concise Abelian subgroup C1      NOp   1
                         Standard orientation:                         
 ---------------------------------------------------------------------
 Center     Atomic      Atomic             Coordinates (Angstroms)
 Number     Number       Type             X           Y           Z
 ---------------------------------------------------------------------
      1          6           0        0.931968    0.510373    0.046258
      2          8           0        1.711350   -0.314812   -0.019448
      3          8           0       -1.957468   -0.126504   -0.102740
      4          1           0       -1.468566    0.705714   -0.136163
      5          1           0       -2.154297   -0.237426    0.836121
 ---------------------------------------------------------------------
 Rotational constants (GHZ):          78.8419197           4.0101805           3.8671838
 Standard basis: 6-31G(d,p) (6D, 7F)
 There are    55 symmetry adapted cartesian basis functions of A   symmetry.
 There are    55 symmetry adapted basis functions of A   symmetry.
    55 basis functions,    98 primitive gaussians,    55 cartesian basis functions
    12 alpha electrons       12 beta electrons
       nuclear repulsion energy        53.8678100091 Hartrees.
 NAtoms=    5 NActive=    5 NUniq=    5 SFac= 1.00D+00 NAtFMM=   60 NAOKFM=F Big=F
 Integral buffers will be    131072 words long.
 Raffenetti 2 integral format.
 Two-electron integral symmetry is turned on.
 One-electron integrals computed using PRISM.
 NBasis=    55 RedAO= T EigKep=  7.38D-03  NBF=    55
 NBsUse=    55 1.00D-06 EigRej= -1.00D+00 NBFU=    55
 Initial guess from the checkpoint file:  "Z:\Desktop\0620\CO(1)H(1)1_3.chk"
 B after Tr=     0.000000    0.000000    0.000000
         Rot=    1.000000    0.000144    0.000022   -0.000069 Ang=   0.02 deg.
 Keep R1 ints in memory in canonical form, NReq=2064058.
 Requested convergence on RMS density matrix=1.00D-08 within 128 cycles.
 Requested convergence on MAX density matrix=1.00D-06.
 Requested convergence on             energy=1.00D-06.
 No special actions if energy rises.
 SCF Done:  E(RB3LYP) =  -189.733271112     A.U. after    8 cycles
            NFock=  8  Conv=0.14D-08     -V/T= 2.0084
 Calling FoFJK, ICntrl=      2127 FMM=F ISym2X=0 I1Cent= 0 IOpClX= 0 NMat=1 NMatS=1 NMatT=0.
 ***** Axes restored to original set *****
 -------------------------------------------------------------------
 Center     Atomic                   Forces (Hartrees/Bohr)
 Number     Number              X              Y              Z
 -------------------------------------------------------------------
      1        6           0.000009578   -0.000023856    0.000002307
      2        8          -0.000018249    0.000022247   -0.000001444
      3        8          -0.000003391   -0.000016490    0.000006532
      4        1           0.000019760    0.000026561   -0.000015595
      5        1          -0.000007699   -0.000008463    0.000008200
 -------------------------------------------------------------------
 Cartesian Forces:  Max     0.000026561 RMS     0.000014966

 GradGradGradGradGradGradGradGradGradGradGradGradGradGradGradGradGradGrad
 Berny optimization.
 Using GEDIIS/GDIIS optimizer.
 FormGI is forming the generalized inverse of G from B-inverse, IUseBI=4.
 Internal  Forces:  Max     0.000028522 RMS     0.000015638
 Search for a local minimum.
 Step number  18 out of a maximum of   20
 All quantities printed in internal units (Hartrees-Bohrs-Radians)
 Mixed Optimization -- En-DIIS/RFO-DIIS
 Swapping is turned off.
 Update second derivatives using D2CorX and points    9   10   11   12   13
                                                     14   15   16   17   18
 DE= -1.88D-07 DEPred=-1.15D-07 R= 1.64D+00
 Trust test= 1.64D+00 RLast= 9.93D-03 DXMaxT set to 3.00D-01
 The second derivative matrix:
                          R1        R2        R3        R4        A1
           R1           1.45222
           R2          -0.00039   0.00533
           R3          -0.02666   0.00369   0.60569
           R4          -0.01513   0.00101   0.03567   0.56471
           A1           0.00045  -0.00135  -0.00265   0.00030   0.01134
           A2          -0.00947   0.00030   0.04750   0.03028  -0.00018
           A3           0.00770   0.00523   0.00137   0.00072  -0.00638
           D1          -0.00376  -0.00021   0.00399   0.00110  -0.00003
           D2          -0.00051   0.00012   0.00048   0.00017  -0.00008
                          A2        A3        D1        D2
           A2           0.18772
           A3          -0.00154   0.01004
           D1           0.00396  -0.00039   0.00240
           D2          -0.00118  -0.00039   0.00100   0.00332
 ITU=  0  0  0  1  1  1  1  1  1  1
     Eigenvalues ---    0.00108   0.00169   0.00396   0.00684   0.01866
     Eigenvalues ---    0.18066   0.54408   0.63228   1.45351
 En-DIIS/RFO-DIIS/Sim-DIIS IScMMF=       -3 using points:    18   17   16   15   14   13   12   11   10    9
 RFO step:  Lambda=-2.52564542D-08.
 DIIS inversion failure, remove point  10.
 DIIS inversion failure, remove point   9.
 DIIS inversion failure, remove point   8.
 DIIS inversion failure, remove point   7.
 DIIS inversion failure, remove point   6.
 DIIS inversion failure, remove point   5.
 RFO-DIIS uses    4 points instead of   10
 DidBck=F Rises=F RFO-DIIS coefs:    1.17553   -0.10787   -0.15796    0.09031    0.00000
                  RFO-DIIS coefs:    0.00000    0.00000    0.00000    0.00000    0.00000
 Iteration  1 RMS(Cart)=  0.00072531 RMS(Int)=  0.00000053
 Iteration  2 RMS(Cart)=  0.00000048 RMS(Int)=  0.00000000
 Variable       Old X    -DE/DX   Delta X   Delta X   Delta X     New X
                                 (Linear)    (Quad)   (Total)
    R1        2.14855  -0.00003  -0.00001  -0.00001  -0.00002   2.14853
    R2        4.56438  -0.00001  -0.00192   0.00011  -0.00180   4.56258
    R3        1.82506   0.00003   0.00002   0.00002   0.00004   1.82510
    R4        1.82484   0.00001   0.00001   0.00001   0.00001   1.82485
    A1        2.39738   0.00000   0.00037  -0.00010   0.00027   2.39764
    A2        1.80885   0.00002   0.00002   0.00003   0.00006   1.80890
    A3        2.01619  -0.00001   0.00070  -0.00031   0.00039   2.01658
    D1        0.24329   0.00001   0.00042   0.00153   0.00195   0.24524
    D2        1.59163   0.00000   0.00024  -0.00011   0.00012   1.59175
         Item               Value     Threshold  Converged?
 Maximum Force            0.000029     0.000450     YES
 RMS     Force            0.000016     0.000300     YES
 Maximum Displacement     0.001045     0.001800     YES
 RMS     Displacement     0.000725     0.001200     YES
 Predicted change in Energy=-1.258510D-08
 Optimization completed.
    -- Stationary point found.
                           ----------------------------
                           !   Optimized Parameters   !
                           ! (Angstroms and Degrees)  !
 --------------------------                            --------------------------
 ! Name  Definition              Value          Derivative Info.                !
 --------------------------------------------------------------------------------
 ! R1    R(1,2)                  1.137          -DE/DX =    0.0                 !
 ! R2    R(1,4)                  2.4154         -DE/DX =    0.0                 !
 ! R3    R(3,4)                  0.9658         -DE/DX =    0.0                 !
 ! R4    R(3,5)                  0.9657         -DE/DX =    0.0                 !
 ! A1    A(2,1,4)              137.3595         -DE/DX =    0.0                 !
 ! A2    A(4,3,5)              103.6394         -DE/DX =    0.0                 !
 ! A3    A(1,4,3)              115.5192         -DE/DX =    0.0                 !
 ! D1    D(2,1,4,3)             13.9396         -DE/DX =    0.0                 !
 ! D2    D(5,3,4,1)             91.1935         -DE/DX =    0.0                 !
 --------------------------------------------------------------------------------
 GradGradGradGradGradGradGradGradGradGradGradGradGradGradGradGradGradGrad

                          Input orientation:                          
 ---------------------------------------------------------------------
 Center     Atomic      Atomic             Coordinates (Angstroms)
 Number     Number       Type             X           Y           Z
 ---------------------------------------------------------------------
      1          6           0        0.918453    0.490028    0.058718
      2          8           0        1.696191   -0.337808    0.008763
      3          8           0       -1.971268   -0.141091   -0.108174
      4          1           0       -1.479903    0.689464   -0.146494
      5          1           0       -2.176439   -0.241207    0.830115
 ---------------------------------------------------------------------
                    Distance matrix (angstroms):
                    1          2          3          4          5
     1  C    0.000000
     2  O    1.136962   0.000000
     3  O    2.962541   3.674592   0.000000
     4  H    2.415367   3.341700   0.965779   0.000000
     5  H    3.272325   3.959951   0.965663   1.518248   0.000000
 Stoichiometry    CH2O2
 Framework group  C1[X(CH2O2)]
 Deg. of freedom     9
 Full point group                 C1      NOp   1
 Largest Abelian subgroup         C1      NOp   1
 Largest concise Abelian subgroup C1      NOp   1
                         Standard orientation:                         
 ---------------------------------------------------------------------
 Center     Atomic      Atomic             Coordinates (Angstroms)
 Number     Number       Type             X           Y           Z
 ---------------------------------------------------------------------
      1          6           0        0.931968    0.510373    0.046258
      2          8           0        1.711350   -0.314812   -0.019448
      3          8           0       -1.957468   -0.126504   -0.102740
      4          1           0       -1.468566    0.705714   -0.136163
      5          1           0       -2.154297   -0.237426    0.836121
 ---------------------------------------------------------------------
 Rotational constants (GHZ):          78.8419197           4.0101805           3.8671838

 **********************************************************************

            Population analysis using the SCF Density.

 **********************************************************************

 Orbital symmetries:
       Occupied  (A) (A) (A) (A) (A) (A) (A) (A) (A) (A) (A) (A)
       Virtual   (A) (A) (A) (A) (A) (A) (A) (A) (A) (A) (A) (A)
                 (A) (A) (A) (A) (A) (A) (A) (A) (A) (A) (A) (A)
                 (A) (A) (A) (A) (A) (A) (A) (A) (A) (A) (A) (A)
                 (A) (A) (A) (A) (A) (A) (A)
 The electronic state is 1-A.
 Alpha  occ. eigenvalues --  -19.26125 -19.14041 -10.30919  -1.16132  -0.99894
 Alpha  occ. eigenvalues --   -0.57309  -0.51691  -0.47084  -0.46987  -0.38678
 Alpha  occ. eigenvalues --   -0.36773  -0.29355
 Alpha virt. eigenvalues --   -0.02733  -0.02583   0.08084   0.15790   0.27711
 Alpha virt. eigenvalues --    0.50345   0.51307   0.61238   0.74564   0.76672
 Alpha virt. eigenvalues --    0.79657   0.81827   0.88494   0.89703   0.92462
 Alpha virt. eigenvalues --    1.02338   1.03101   1.17923   1.40905   1.47539
 Alpha virt. eigenvalues --    1.47683   1.53613   1.53857   1.55019   1.56555
 Alpha virt. eigenvalues --    1.65542   1.93979   1.94147   2.24192   2.27015
 Alpha virt. eigenvalues --    2.39200   2.45730   2.59599   2.60336   2.65037
 Alpha virt. eigenvalues --    2.67302   2.95780   3.02820   3.31995   3.53531
 Alpha virt. eigenvalues --    3.64791   3.78883   3.93500
          Condensed to atoms (all electrons):
               1          2          3          4          5
     1  C    5.221250   0.583595   0.005682   0.016489   0.001131
     2  O    0.583595   7.593672  -0.000558  -0.000586   0.000049
     3  O    0.005682  -0.000558   8.042679   0.278543   0.283230
     4  H    0.016489  -0.000586   0.278543   0.423941  -0.027641
     5  H    0.001131   0.000049   0.283230  -0.027641   0.438589
 Mulliken charges:
               1
     1  C    0.171852
     2  O   -0.176172
     3  O   -0.609576
     4  H    0.309253
     5  H    0.304642
 Sum of Mulliken charges =   0.00000
 Mulliken charges with hydrogens summed into heavy atoms:
               1
     1  C    0.171852
     2  O   -0.176172
     3  O    0.004319
 Electronic spatial extent (au):  <R**2>=            287.6991
 Charge=              0.0000 electrons
 Dipole moment (field-independent basis, Debye):
    X=              0.4978    Y=              1.1004    Z=              1.5146  Tot=              1.9372
 Quadrupole moment (field-independent basis, Debye-Ang):
   XX=            -18.9403   YY=            -16.8272   ZZ=            -15.2213
   XY=             -0.5851   XZ=             -3.5588   YZ=             -0.8013
 Traceless Quadrupole moment (field-independent basis, Debye-Ang):
   XX=             -1.9440   YY=              0.1691   ZZ=              1.7749
   XY=             -0.5851   XZ=             -3.5588   YZ=             -0.8013
 Octapole moment (field-independent basis, Debye-Ang**2):
  XXX=              1.6598  YYY=             -2.6557  ZZZ=              1.3545  XYY=             -1.9294
  XXY=              2.3299  XXZ=              8.4129  XZZ=             -2.7184  YZZ=             -0.9527
  YYZ=              0.0060  XYZ=              1.2872
 Hexadecapole moment (field-independent basis, Debye-Ang**3):
 XXXX=           -292.1518 YYYY=            -28.1982 ZZZZ=            -13.7732 XXXY=              0.3806
 XXXZ=            -19.6946 YYYX=             -3.8137 YYYZ=             -0.6581 ZZZX=             -3.7947
 ZZZY=             -0.7255 XXYY=            -48.2926 XXZZ=            -42.3123 YYZZ=             -7.0217
 XXYZ=             -2.8004 YYXZ=             -0.6547 ZZXY=             -0.2335
 N-N= 5.386781000907D+01 E-N=-5.539495801812D+02  KE= 1.881459948713D+02
 Unable to Open any file for archive entry.
 1|1|UNPC-PCHID016|FOpt|RB3LYP|6-31G(d,p)|C1H2O2|S202036C|20-Jun-2023|0
 ||# opt b3lyp/6-31g(d,p) geom=connectivity||Title Card Required||0,1|C
 ,0.9184526264,0.4900277922,0.0587176488|O,1.6961905947,-0.3378078565,0
 .0087625626|O,-1.9712682793,-0.1410910794,-0.1081741559|H,-1.479902789
 5,0.6894638764,-0.1464944582|H,-2.1764391523,-0.2412067328,0.830115402
 7||Version=EM64W-G16RevC.01|State=1-A|HF=-189.7332711|RMSD=1.352e-009|
 RMSF=1.497e-005|Dipole=0.1918656,0.4389273,0.59278|Quadrupole=-1.40196
 49,0.1151254,1.2868395,-0.4550916,-2.665981,-0.5797221|PG=C01 [X(C1H2O
 2)]||@
 The archive entry for this job was punched.


 THAT'S WHAT MAKES US A GREAT COUNTRY.
 THE LITTLE THINGS ARE SERIOUS AND THE BIG ONES ARE NOT.
           WILL ROGERS
 Job cpu time:       0 days  0 hours  2 minutes 57.0 seconds.
 Elapsed time:       0 days  0 hours  2 minutes 34.6 seconds.
 File lengths (MBytes):  RWF=      6 Int=      0 D2E=      0 Chk=      1 Scr=      1
 Normal termination of Gaussian 16 at Tue Jun 20 16:58:12 2023.
