 Entering Link 1 = C:\G16W\l1.exe PID=      9596.
  
 Copyright (c) 1988-2019, Gaussian, Inc.  All Rights Reserved.
  
 This is part of the Gaussian(R) 16 program.  It is based on
 the Gaussian(R) 09 system (copyright 2009, Gaussian, Inc.),
 the Gaussian(R) 03 system (copyright 2003, Gaussian, Inc.),
 the Gaussian(R) 98 system (copyright 1998, Gaussian, Inc.),
 the Gaussian(R) 94 system (copyright 1995, Gaussian, Inc.),
 the Gaussian 92(TM) system (copyright 1992, Gaussian, Inc.),
 the Gaussian 90(TM) system (copyright 1990, Gaussian, Inc.),
 the Gaussian 88(TM) system (copyright 1988, Gaussian, Inc.),
 the Gaussian 86(TM) system (copyright 1986, Carnegie Mellon
 University), and the Gaussian 82(TM) system (copyright 1983,
 Carnegie Mellon University). Gaussian is a federally registered
 trademark of Gaussian, Inc.
  
 This software contains proprietary and confidential information,
 including trade secrets, belonging to Gaussian, Inc.
  
 This software is provided under written license and may be
 used, copied, transmitted, or stored only in accord with that
 written license.
  
 The following legend is applicable only to US Government
 contracts under FAR:
  
                    RESTRICTED RIGHTS LEGEND
  
 Use, reproduction and disclosure by the US Government is
 subject to restrictions as set forth in subparagraphs (a)
 and (c) of the Commercial Computer Software - Restricted
 Rights clause in FAR 52.227-19.
  
 Gaussian, Inc.
 340 Quinnipiac St., Bldg. 40, Wallingford CT 06492
  
  
 ---------------------------------------------------------------
 Warning -- This program may not be used in any manner that
 competes with the business of Gaussian, Inc. or will provide
 assistance to any competitor of Gaussian, Inc.  The licensee
 of this program is prohibited from giving any competitor of
 Gaussian, Inc. access to this program.  By using this program,
 the user acknowledges that Gaussian, Inc. is engaged in the
 business of creating and licensing software in the field of
 computational chemistry and represents and warrants to the
 licensee that it is not a competitor of Gaussian, Inc. and that
 it will not use this program in any manner prohibited above.
 ---------------------------------------------------------------
  

 Cite this work as:
 Gaussian 16, Revision C.01,
 M. J. Frisch, G. W. Trucks, H. B. Schlegel, G. E. Scuseria, 
 M. A. Robb, J. R. Cheeseman, G. Scalmani, V. Barone, 
 G. A. Petersson, H. Nakatsuji, X. Li, M. Caricato, A. V. Marenich, 
 J. Bloino, B. G. Janesko, R. Gomperts, B. Mennucci, H. P. Hratchian, 
 J. V. Ortiz, A. F. Izmaylov, J. L. Sonnenberg, D. Williams-Young, 
 F. Ding, F. Lipparini, F. Egidi, J. Goings, B. Peng, A. Petrone, 
 T. Henderson, D. Ranasinghe, V. G. Zakrzewski, J. Gao, N. Rega, 
 G. Zheng, W. Liang, M. Hada, M. Ehara, K. Toyota, R. Fukuda, 
 J. Hasegawa, M. Ishida, T. Nakajima, Y. Honda, O. Kitao, H. Nakai, 
 T. Vreven, K. Throssell, J. A. Montgomery, Jr., J. E. Peralta, 
 F. Ogliaro, M. J. Bearpark, J. J. Heyd, E. N. Brothers, K. N. Kudin, 
 V. N. Staroverov, T. A. Keith, R. Kobayashi, J. Normand, 
 K. Raghavachari, A. P. Rendell, J. C. Burant, S. S. Iyengar, 
 J. Tomasi, M. Cossi, J. M. Millam, M. Klene, C. Adamo, R. Cammi, 
 J. W. Ochterski, R. L. Martin, K. Morokuma, O. Farkas, 
 J. B. Foresman, and D. J. Fox, Gaussian, Inc., Wallingford CT, 2019.
 
 ******************************************
 Gaussian 16:  EM64W-G16RevC.01 30-May-2019
                20-Jun-2023 
 ******************************************
 %chk=Z:\Desktop\0620\H2OCO(1).chk
 ----------------------------------------
 # opt b3lyp/6-31g(d,p) geom=connectivity
 ----------------------------------------
 1/18=20,19=15,26=3,38=1,57=2/1,3;
 2/9=110,12=2,17=6,18=5,40=1/2;
 3/5=1,6=6,7=101,11=2,25=1,30=1,71=1,74=-5/1,2,3;
 4//1;
 5/5=2,38=5/2;
 6/7=2,8=2,9=2,10=2,28=1/1;
 7//1,2,3,16;
 1/18=20,19=15,26=3/3(2);
 2/9=110/2;
 99//99;
 2/9=110/2;
 3/5=1,6=6,7=101,11=2,25=1,30=1,71=1,74=-5/1,2,3;
 4/5=5,16=3,69=1/1;
 5/5=2,38=5/2;
 7//1,2,3,16;
 1/18=20,19=15,26=3/3(-5);
 2/9=110/2;
 6/7=2,8=2,9=2,10=2,19=2,28=1/1;
 99/9=1/99;
 -------------------
 Title Card Required
 -------------------
 Symbolic Z-matrix:
 Charge =  0 Multiplicity = 1
 C                     0.93626   0.46855   0.04688 
 O                     1.78305  -0.28718  -0.01958 
 O                    -2.02561  -0.11791  -0.10425 
 H                    -2.22344  -0.23091   0.8343 
 H                    -1.45363   0.66034  -0.12492 
 
 Add virtual bond connecting atoms H5         and C1         Dist= 4.54D+00.

 GradGradGradGradGradGradGradGradGradGradGradGradGradGradGradGradGradGrad
 Berny optimization.
 Initialization pass.
                           ----------------------------
                           !    Initial Parameters    !
                           ! (Angstroms and Degrees)  !
 --------------------------                            --------------------------
 ! Name  Definition              Value          Derivative Info.                !
 --------------------------------------------------------------------------------
 ! R1    R(1,2)                  1.1369         estimate D2E/DX2                !
 ! R2    R(1,5)                  2.4037         estimate D2E/DX2                !
 ! R3    R(3,4)                  0.9658         estimate D2E/DX2                !
 ! R4    R(3,5)                  0.9661         estimate D2E/DX2                !
 ! A1    A(2,1,5)              142.1275         estimate D2E/DX2                !
 ! A2    A(4,3,5)              103.6695         estimate D2E/DX2                !
 ! A3    A(1,5,3)              121.5243         estimate D2E/DX2                !
 ! D1    D(2,1,5,3)             14.7764         estimate D2E/DX2                !
 ! D2    D(4,3,5,1)             90.0902         estimate D2E/DX2                !
 --------------------------------------------------------------------------------
 Trust Radius=3.00D-01 FncErr=1.00D-07 GrdErr=1.00D-06 EigMax=2.50D+02 EigMin=1.00D-04
 Number of steps in this run=     20 maximum allowed number of steps=    100.
 GradGradGradGradGradGradGradGradGradGradGradGradGradGradGradGradGradGrad

                          Input orientation:                          
 ---------------------------------------------------------------------
 Center     Atomic      Atomic             Coordinates (Angstroms)
 Number     Number       Type             X           Y           Z
 ---------------------------------------------------------------------
      1          6           0        0.936260    0.468552    0.046884
      2          8           0        1.783047   -0.287178   -0.019583
      3          8           0       -2.025608   -0.117914   -0.104253
      4          1           0       -2.223442   -0.230914    0.834299
      5          1           0       -1.453631    0.660342   -0.124918
 ---------------------------------------------------------------------
                    Distance matrix (angstroms):
                    1          2          3          4          5
     1  C    0.000000
     2  O    1.136923   0.000000
     3  O    3.023152   3.813354   0.000000
     4  H    3.330614   4.096857   0.965809   0.000000
     5  H    2.403722   3.374163   0.966058   1.518895   0.000000
 Stoichiometry    CH2O2
 Framework group  C1[X(CH2O2)]
 Deg. of freedom     9
 Full point group                 C1      NOp   1
 Largest Abelian subgroup         C1      NOp   1
 Largest concise Abelian subgroup C1      NOp   1
                         Standard orientation:                         
 ---------------------------------------------------------------------
 Center     Atomic      Atomic             Coordinates (Angstroms)
 Number     Number       Type             X           Y           Z
 ---------------------------------------------------------------------
      1          6           0        0.936260    0.468552    0.046884
      2          8           0        1.783047   -0.287179   -0.019583
      3          8           0       -2.025608   -0.117914   -0.104253
      4          1           0       -2.223442   -0.230914    0.834299
      5          1           0       -1.453631    0.660342   -0.124918
 ---------------------------------------------------------------------
 Rotational constants (GHZ):          90.9903777           3.7513655           3.6482293
 Standard basis: 6-31G(d,p) (6D, 7F)
 There are    55 symmetry adapted cartesian basis functions of A   symmetry.
 There are    55 symmetry adapted basis functions of A   symmetry.
    55 basis functions,    98 primitive gaussians,    55 cartesian basis functions
    12 alpha electrons       12 beta electrons
       nuclear repulsion energy        53.3007126040 Hartrees.
 NAtoms=    5 NActive=    5 NUniq=    5 SFac= 1.00D+00 NAtFMM=   60 NAOKFM=F Big=F
 Integral buffers will be    131072 words long.
 Raffenetti 2 integral format.
 Two-electron integral symmetry is turned on.
 One-electron integrals computed using PRISM.
 NBasis=    55 RedAO= T EigKep=  7.28D-03  NBF=    55
 NBsUse=    55 1.00D-06 EigRej= -1.00D+00 NBFU=    55
 ExpMin= 1.61D-01 ExpMax= 5.48D+03 ExpMxC= 8.25D+02 IAcc=3 IRadAn=         5 AccDes= 0.00D+00
 Harris functional with IExCor=  402 and IRadAn=       5 diagonalized for initial guess.
 HarFok:  IExCor=  402 AccDes= 0.00D+00 IRadAn=         5 IDoV= 1 UseB2=F ITyADJ=14
 ICtDFT=  3500011 ScaDFX=  1.000000  1.000000  1.000000  1.000000
 FoFCou: FMM=F IPFlag=           0 FMFlag=      100000 FMFlg1=           0
         NFxFlg=           0 DoJE=T BraDBF=F KetDBF=T FulRan=T
         wScrn=  0.000000 ICntrl=       500 IOpCl=  0 I1Cent=   200000004 NGrid=           0
         NMat0=    1 NMatS0=      1 NMatT0=    0 NMatD0=    1 NMtDS0=    0 NMtDT0=    0
 Petite list used in FoFCou.
 Keep R1 ints in memory in canonical form, NReq=2064058.
 Requested convergence on RMS density matrix=1.00D-08 within 128 cycles.
 Requested convergence on MAX density matrix=1.00D-06.
 Requested convergence on             energy=1.00D-06.
 No special actions if energy rises.
 Integral accuracy reduced to 1.0D-05 until final iterations.
 Initial convergence to 1.0D-05 achieved.  Increase integral accuracy.
 SCF Done:  E(RB3LYP) =  -189.733240571     A.U. after   12 cycles
            NFock= 12  Conv=0.37D-08     -V/T= 2.0084

 **********************************************************************

            Population analysis using the SCF Density.

 **********************************************************************

 Orbital symmetries:
       Occupied  (A) (A) (A) (A) (A) (A) (A) (A) (A) (A) (A) (A)
       Virtual   (A) (A) (A) (A) (A) (A) (A) (A) (A) (A) (A) (A)
                 (A) (A) (A) (A) (A) (A) (A) (A) (A) (A) (A) (A)
                 (A) (A) (A) (A) (A) (A) (A) (A) (A) (A) (A) (A)
                 (A) (A) (A) (A) (A) (A) (A)
 The electronic state is 1-A.
 Alpha  occ. eigenvalues --  -19.26462 -19.13744 -10.31250  -1.16455  -0.99606
 Alpha  occ. eigenvalues --   -0.57609  -0.51443  -0.47387  -0.47304  -0.38891
 Alpha  occ. eigenvalues --   -0.36563  -0.29123
 Alpha virt. eigenvalues --   -0.03022  -0.02916   0.08195   0.16099   0.27944
 Alpha virt. eigenvalues --    0.50102   0.50819   0.61918   0.74273   0.76889
 Alpha virt. eigenvalues --    0.79425   0.81991   0.88025   0.89647   0.92303
 Alpha virt. eigenvalues --    1.01924   1.03631   1.18634   1.40335   1.47222
 Alpha virt. eigenvalues --    1.47340   1.53303   1.53702   1.55037   1.56297
 Alpha virt. eigenvalues --    1.65965   1.93671   1.93795   2.24406   2.27198
 Alpha virt. eigenvalues --    2.38856   2.45802   2.59293   2.59825   2.65319
 Alpha virt. eigenvalues --    2.67375   2.95624   3.03011   3.32516   3.54108
 Alpha virt. eigenvalues --    3.65130   3.78238   3.93738
          Condensed to atoms (all electrons):
               1          2          3          4          5
     1  C    5.218580   0.581364   0.003121   0.001079   0.018701
     2  O    0.581364   7.594704  -0.000221   0.000025  -0.000684
     3  O    0.003121  -0.000221   8.049329   0.283376   0.278509
     4  H    0.001079   0.000025   0.283376   0.440332  -0.028179
     5  H    0.018701  -0.000684   0.278509  -0.028179   0.422875
 Mulliken charges:
               1
     1  C    0.177155
     2  O   -0.175188
     3  O   -0.614113
     4  H    0.303367
     5  H    0.308778
 Sum of Mulliken charges =   0.00000
 Mulliken charges with hydrogens summed into heavy atoms:
               1
     1  C    0.177155
     2  O   -0.175188
     3  O   -0.001968
 Electronic spatial extent (au):  <R**2>=            302.5030
 Charge=              0.0000 electrons
 Dipole moment (field-independent basis, Debye):
    X=              0.7272    Y=              1.0251    Z=              1.5372  Tot=              1.9856
 Quadrupole moment (field-independent basis, Debye-Ang):
   XX=            -19.5676   YY=            -16.7909   ZZ=            -15.2376
   XY=             -0.3925   XZ=             -3.7062   YZ=             -0.7442
 Traceless Quadrupole moment (field-independent basis, Debye-Ang):
   XX=             -2.3689   YY=              0.4078   ZZ=              1.9611
   XY=             -0.3925   XZ=             -3.7062   YZ=             -0.7442
 Octapole moment (field-independent basis, Debye-Ang**2):
  XXX=              2.6005  YYY=             -2.2871  ZZZ=              1.3510  XYY=             -1.4194
  XXY=              1.9824  XXZ=              9.0382  XZZ=             -2.6846  YZZ=             -0.8852
  YYZ=              0.0454  XYZ=              1.2411
 Hexadecapole moment (field-independent basis, Debye-Ang**3):
 XXXX=           -313.4101 YYYY=            -25.7099 ZZZZ=            -13.7897 XXXY=              1.7450
 XXXZ=            -21.6532 YYYX=             -3.2414 YYYZ=             -0.5740 ZZZX=             -3.8959
 ZZZY=             -0.6818 XXYY=            -51.2255 XXZZ=            -44.9525 YYZZ=             -6.6483
 XXYZ=             -2.7590 YYXZ=             -0.6926 ZZXY=             -0.1436
 N-N= 5.330071260400D+01 E-N=-5.527970793174D+02  KE= 1.881448056814D+02
 Calling FoFJK, ICntrl=      2127 FMM=F ISym2X=0 I1Cent= 0 IOpClX= 0 NMat=1 NMatS=1 NMatT=0.
 ***** Axes restored to original set *****
 -------------------------------------------------------------------
 Center     Atomic                   Forces (Hartrees/Bohr)
 Number     Number              X              Y              Z
 -------------------------------------------------------------------
      1        6           0.000203799   -0.000255350   -0.000027376
      2        8          -0.000506133    0.000275633    0.000006486
      3        8           0.000272658    0.000054402    0.000200441
      4        1           0.000056516    0.000093520   -0.000261544
      5        1          -0.000026840   -0.000168205    0.000081993
 -------------------------------------------------------------------
 Cartesian Forces:  Max     0.000506133 RMS     0.000211854

 GradGradGradGradGradGradGradGradGradGradGradGradGradGradGradGradGradGrad
 Berny optimization.
 FormGI is forming the generalized inverse of G from B-inverse, IUseBI=4.
 Internal  Forces:  Max     0.000560490 RMS     0.000291829
 Search for a local minimum.
 Step number   1 out of a maximum of   20
 All quantities printed in internal units (Hartrees-Bohrs-Radians)
 Mixed Optimization -- En-DIIS/RFO-DIIS
 Second derivative matrix not updated -- first step.
 The second derivative matrix:
                          R1        R2        R3        R4        A1
           R1           1.44168
           R2           0.00000   0.02357
           R3           0.00000   0.00000   0.54242
           R4           0.00000   0.00000   0.00000   0.54191
           A1           0.00000   0.00000   0.00000   0.00000   0.16000
           A2           0.00000   0.00000   0.00000   0.00000   0.00000
           A3           0.00000   0.00000   0.00000   0.00000   0.00000
           D1           0.00000   0.00000   0.00000   0.00000   0.00000
           D2           0.00000   0.00000   0.00000   0.00000   0.00000
                          A2        A3        D1        D2
           A2           0.16000
           A3           0.00000   0.25000
           D1           0.00000   0.00000   0.00230
           D2           0.00000   0.00000   0.00000   0.01477
 ITU=  0
     Eigenvalues ---    0.00230   0.01477   0.02357   0.16000   0.16000
     Eigenvalues ---    0.25000   0.54191   0.54242   1.44168
 RFO step:  Lambda=-5.65041735D-06 EMin= 2.30000000D-03
 Linear search not attempted -- first point.
 Iteration  1 RMS(Cart)=  0.00538924 RMS(Int)=  0.00000478
 Iteration  2 RMS(Cart)=  0.00000350 RMS(Int)=  0.00000000
 Iteration  3 RMS(Cart)=  0.00000000 RMS(Int)=  0.00000000
 Variable       Old X    -DE/DX   Delta X   Delta X   Delta X     New X
                                 (Linear)    (Quad)   (Total)
    R1        2.14847  -0.00056   0.00000  -0.00039  -0.00039   2.14808
    R2        4.54238  -0.00030   0.00000  -0.01288  -0.01288   4.52949
    R3        1.82511  -0.00028   0.00000  -0.00051  -0.00051   1.82460
    R4        1.82558  -0.00032   0.00000  -0.00058  -0.00058   1.82500
    A1        2.48059  -0.00029   0.00000  -0.00180  -0.00180   2.47879
    A2        1.80937  -0.00009   0.00000  -0.00058  -0.00058   1.80880
    A3        2.12100  -0.00030   0.00000  -0.00119  -0.00119   2.11981
    D1        0.25790   0.00000   0.00000   0.00039   0.00039   0.25829
    D2        1.57237   0.00006   0.00000   0.00425   0.00425   1.57662
         Item               Value     Threshold  Converged?
 Maximum Force            0.000560     0.000450     NO 
 RMS     Force            0.000292     0.000300     YES
 Maximum Displacement     0.009496     0.001800     NO 
 RMS     Displacement     0.005389     0.001200     NO 
 Predicted change in Energy=-2.825209D-06
 GradGradGradGradGradGradGradGradGradGradGradGradGradGradGradGradGradGrad

                          Input orientation:                          
 ---------------------------------------------------------------------
 Center     Atomic      Atomic             Coordinates (Angstroms)
 Number     Number       Type             X           Y           Z
 ---------------------------------------------------------------------
      1          6           0        0.932482    0.469288    0.047433
      2          8           0        1.778022   -0.287439   -0.020042
      3          8           0       -2.021291   -0.118907   -0.104272
      4          1           0       -2.221941   -0.230014    0.833630
      5          1           0       -1.450645    0.659960   -0.124319
 ---------------------------------------------------------------------
                    Distance matrix (angstroms):
                    1          2          3          4          5
     1  C    0.000000
     2  O    1.136717   0.000000
     3  O    3.015586   3.803982   0.000000
     4  H    3.325284   4.090447   0.965539   0.000000
     5  H    2.396904   3.366412   0.965749   1.518097   0.000000
 Stoichiometry    CH2O2
 Framework group  C1[X(CH2O2)]
 Deg. of freedom     9
 Full point group                 C1      NOp   1
 Largest Abelian subgroup         C1      NOp   1
 Largest concise Abelian subgroup C1      NOp   1
                         Standard orientation:                         
 ---------------------------------------------------------------------
 Center     Atomic      Atomic             Coordinates (Angstroms)
 Number     Number       Type             X           Y           Z
 ---------------------------------------------------------------------
      1          6           0        0.933565    0.469447    0.046195
      2          8           0        1.778960   -0.287637   -0.019056
      3          8           0       -2.020313   -0.118588   -0.104070
      4          1           0       -2.221059   -0.226983    0.834129
      5          1           0       -1.449509    0.660104   -0.126290
 ---------------------------------------------------------------------
 Rotational constants (GHZ):          90.7780675           3.7698012           3.6652548
 Standard basis: 6-31G(d,p) (6D, 7F)
 There are    55 symmetry adapted cartesian basis functions of A   symmetry.
 There are    55 symmetry adapted basis functions of A   symmetry.
    55 basis functions,    98 primitive gaussians,    55 cartesian basis functions
    12 alpha electrons       12 beta electrons
       nuclear repulsion energy        53.3603174388 Hartrees.
 NAtoms=    5 NActive=    5 NUniq=    5 SFac= 1.00D+00 NAtFMM=   60 NAOKFM=F Big=F
 Integral buffers will be    131072 words long.
 Raffenetti 2 integral format.
 Two-electron integral symmetry is turned on.
 One-electron integrals computed using PRISM.
 NBasis=    55 RedAO= T EigKep=  7.27D-03  NBF=    55
 NBsUse=    55 1.00D-06 EigRej= -1.00D+00 NBFU=    55
 Initial guess from the checkpoint file:  "Z:\Desktop\0620\H2OCO(1).chk"
 B after Tr=     0.000000    0.000000    0.000000
         Rot=    0.999999    0.001235    0.000043   -0.000014 Ang=   0.14 deg.
 Keep R1 ints in memory in canonical form, NReq=2064058.
 Requested convergence on RMS density matrix=1.00D-08 within 128 cycles.
 Requested convergence on MAX density matrix=1.00D-06.
 Requested convergence on             energy=1.00D-06.
 No special actions if energy rises.
 SCF Done:  E(RB3LYP) =  -189.733245410     A.U. after    8 cycles
            NFock=  8  Conv=0.15D-08     -V/T= 2.0084
 Calling FoFJK, ICntrl=      2127 FMM=F ISym2X=0 I1Cent= 0 IOpClX= 0 NMat=1 NMatS=1 NMatT=0.
 ***** Axes restored to original set *****
 -------------------------------------------------------------------
 Center     Atomic                   Forces (Hartrees/Bohr)
 Number     Number              X              Y              Z
 -------------------------------------------------------------------
      1        6          -0.000094206    0.000090108    0.000002983
      2        8          -0.000137506   -0.000060894   -0.000019176
      3        8           0.000124648   -0.000117907    0.000008371
      4        1          -0.000040943   -0.000003869    0.000008855
      5        1           0.000148007    0.000092562   -0.000001033
 -------------------------------------------------------------------
 Cartesian Forces:  Max     0.000148007 RMS     0.000082357

 GradGradGradGradGradGradGradGradGradGradGradGradGradGradGradGradGradGrad
 Berny optimization.
 Using GEDIIS/GDIIS optimizer.
 FormGI is forming the generalized inverse of G from B-inverse, IUseBI=4.
 Internal  Forces:  Max     0.000298681 RMS     0.000154308
 Search for a local minimum.
 Step number   2 out of a maximum of   20
 All quantities printed in internal units (Hartrees-Bohrs-Radians)
 Mixed Optimization -- En-DIIS/RFO-DIIS
 Swapping is turned off.
 Update second derivatives using D2CorX and points    1    2
 DE= -4.84D-06 DEPred=-2.83D-06 R= 1.71D+00
 TightC=F SS=  1.41D+00  RLast= 1.38D-02 DXNew= 5.0454D-01 4.1348D-02
 Trust test= 1.71D+00 RLast= 1.38D-02 DXMaxT set to 3.00D-01
 The second derivative matrix:
                          R1        R2        R3        R4        A1
           R1           1.53988
           R2          -0.00865   0.01024
           R3           0.06308  -0.00222   0.58215
           R4           0.08082  -0.00130   0.05054   0.60603
           A1          -0.03183  -0.01594  -0.01602  -0.01846   0.14537
           A2           0.03266   0.00088   0.02009   0.02534  -0.00559
           A3          -0.01291  -0.01367  -0.00479  -0.00451  -0.01553
           D1          -0.00180  -0.00022  -0.00107  -0.00132   0.00009
           D2           0.00315   0.00294   0.00126   0.00126   0.00327
                          A2        A3        D1        D2
           A2           0.16986
           A3          -0.00035   0.23612
           D1          -0.00050  -0.00016   0.00232
           D2           0.00019   0.00297   0.00003   0.01414
 ITU=  1  0
     Eigenvalues ---    0.00230   0.00568   0.01554   0.14299   0.16768
     Eigenvalues ---    0.23921   0.54217   0.63709   1.55346
 En-DIIS/RFO-DIIS/Sim-DIIS IScMMF=       -3 using points:     2    1
 RFO step:  Lambda=-1.55858812D-05.
 DidBck=F Rises=F RFO-DIIS coefs:    3.00000   -2.00000
 Iteration  1 RMS(Cart)=  0.01987265 RMS(Int)=  0.00006827
 Iteration  2 RMS(Cart)=  0.00005250 RMS(Int)=  0.00000000
 Iteration  3 RMS(Cart)=  0.00000000 RMS(Int)=  0.00000000
 Variable       Old X    -DE/DX   Delta X   Delta X   Delta X     New X
                                 (Linear)    (Quad)   (Total)
    R1        2.14808  -0.00006  -0.00078   0.00024  -0.00053   2.14755
    R2        4.52949  -0.00023  -0.02577  -0.02157  -0.04734   4.48215
    R3        1.82460   0.00002  -0.00102   0.00062  -0.00040   1.82421
    R4        1.82500   0.00005  -0.00116   0.00090  -0.00027   1.82473
    A1        2.47879  -0.00030  -0.00360  -0.00468  -0.00829   2.47051
    A2        1.80880   0.00004  -0.00115   0.00152   0.00037   1.80917
    A3        2.11981  -0.00024  -0.00238  -0.00219  -0.00457   2.11523
    D1        0.25829  -0.00001   0.00078  -0.00823  -0.00746   0.25083
    D2        1.57662   0.00005   0.00850   0.00815   0.01665   1.59327
         Item               Value     Threshold  Converged?
 Maximum Force            0.000299     0.000450     YES
 RMS     Force            0.000154     0.000300     YES
 Maximum Displacement     0.036118     0.001800     NO 
 RMS     Displacement     0.019884     0.001200     NO 
 Predicted change in Energy=-7.813737D-06
 GradGradGradGradGradGradGradGradGradGradGradGradGradGradGradGradGradGrad

                          Input orientation:                          
 ---------------------------------------------------------------------
 Center     Atomic      Atomic             Coordinates (Angstroms)
 Number     Number       Type             X           Y           Z
 ---------------------------------------------------------------------
      1          6           0        0.919377    0.473468    0.046910
      2          8           0        1.758909   -0.289548   -0.019988
      3          8           0       -2.005147   -0.122240   -0.104098
      4          1           0       -2.217413   -0.228646    0.831573
      5          1           0       -1.439100    0.659853   -0.121968
 ---------------------------------------------------------------------
                    Distance matrix (angstroms):
                    1          2          3          4          5
     1  C    0.000000
     2  O    1.136434   0.000000
     3  O    2.988396   3.768711   0.000000
     4  H    3.308793   4.066940   0.965329   0.000000
     5  H    2.371850   3.337517   0.965607   1.518039   0.000000
 Stoichiometry    CH2O2
 Framework group  C1[X(CH2O2)]
 Deg. of freedom     9
 Full point group                 C1      NOp   1
 Largest Abelian subgroup         C1      NOp   1
 Largest concise Abelian subgroup C1      NOp   1
                         Standard orientation:                         
 ---------------------------------------------------------------------
 Center     Atomic      Atomic             Coordinates (Angstroms)
 Number     Number       Type             X           Y           Z
 ---------------------------------------------------------------------
      1          6           0        0.924350    0.473894    0.044452
      2          8           0        1.763262   -0.290208   -0.017654
      3          8           0       -2.000626   -0.120252   -0.103937
      4          1           0       -2.213270   -0.220928    0.832283
      5          1           0       -1.433918    0.661247   -0.126269
 ---------------------------------------------------------------------
 Rotational constants (GHZ):          89.6090461           3.8397597           3.7290621
 Standard basis: 6-31G(d,p) (6D, 7F)
 There are    55 symmetry adapted cartesian basis functions of A   symmetry.
 There are    55 symmetry adapted basis functions of A   symmetry.
    55 basis functions,    98 primitive gaussians,    55 cartesian basis functions
    12 alpha electrons       12 beta electrons
       nuclear repulsion energy        53.5630810725 Hartrees.
 NAtoms=    5 NActive=    5 NUniq=    5 SFac= 1.00D+00 NAtFMM=   60 NAOKFM=F Big=F
 Integral buffers will be    131072 words long.
 Raffenetti 2 integral format.
 Two-electron integral symmetry is turned on.
 One-electron integrals computed using PRISM.
 NBasis=    55 RedAO= T EigKep=  7.25D-03  NBF=    55
 NBsUse=    55 1.00D-06 EigRej= -1.00D+00 NBFU=    55
 Initial guess from the checkpoint file:  "Z:\Desktop\0620\H2OCO(1).chk"
 B after Tr=     0.000000    0.000000    0.000000
         Rot=    0.999997    0.002305    0.000171   -0.000001 Ang=   0.26 deg.
 ExpMin= 1.61D-01 ExpMax= 5.48D+03 ExpMxC= 8.25D+02 IAcc=3 IRadAn=         5 AccDes= 0.00D+00
 Harris functional with IExCor=  402 and IRadAn=       5 diagonalized for initial guess.
 HarFok:  IExCor=  402 AccDes= 0.00D+00 IRadAn=         5 IDoV= 1 UseB2=F ITyADJ=14
 ICtDFT=  3500011 ScaDFX=  1.000000  1.000000  1.000000  1.000000
 FoFCou: FMM=F IPFlag=           0 FMFlag=      100000 FMFlg1=           0
         NFxFlg=           0 DoJE=T BraDBF=F KetDBF=T FulRan=T
         wScrn=  0.000000 ICntrl=       500 IOpCl=  0 I1Cent=   200000004 NGrid=           0
         NMat0=    1 NMatS0=      1 NMatT0=    0 NMatD0=    1 NMtDS0=    0 NMtDT0=    0
 Petite list used in FoFCou.
 Keep R1 ints in memory in canonical form, NReq=2064058.
 Requested convergence on RMS density matrix=1.00D-08 within 128 cycles.
 Requested convergence on MAX density matrix=1.00D-06.
 Requested convergence on             energy=1.00D-06.
 No special actions if energy rises.
 Integral accuracy reduced to 1.0D-05 until final iterations.
 Initial convergence to 1.0D-05 achieved.  Increase integral accuracy.
 SCF Done:  E(RB3LYP) =  -189.733254031     A.U. after   10 cycles
            NFock= 10  Conv=0.13D-08     -V/T= 2.0084
 Calling FoFJK, ICntrl=      2127 FMM=F ISym2X=0 I1Cent= 0 IOpClX= 0 NMat=1 NMatS=1 NMatT=0.
 ***** Axes restored to original set *****
 -------------------------------------------------------------------
 Center     Atomic                   Forces (Hartrees/Bohr)
 Number     Number              X              Y              Z
 -------------------------------------------------------------------
      1        6          -0.000343265    0.000600514    0.000053560
      2        8           0.000379298   -0.000543443   -0.000051379
      3        8          -0.000093444   -0.000244551   -0.000219555
      4        1          -0.000079752   -0.000040648    0.000233989
      5        1           0.000137164    0.000228128   -0.000016616
 -------------------------------------------------------------------
 Cartesian Forces:  Max     0.000600514 RMS     0.000279737

 GradGradGradGradGradGradGradGradGradGradGradGradGradGradGradGradGradGrad
 Berny optimization.
 Using GEDIIS/GDIIS optimizer.
 FormGI is forming the generalized inverse of G from B-inverse, IUseBI=4.
 Internal  Forces:  Max     0.000648170 RMS     0.000278643
 Search for a local minimum.
 Step number   3 out of a maximum of   20
 All quantities printed in internal units (Hartrees-Bohrs-Radians)
 Mixed Optimization -- En-DIIS/RFO-DIIS
 Swapping is turned off.
 Update second derivatives using D2CorX and points    1    2    3
 DE= -8.62D-06 DEPred=-7.81D-06 R= 1.10D+00
 TightC=F SS=  1.41D+00  RLast= 5.16D-02 DXNew= 5.0454D-01 1.5486D-01
 Trust test= 1.10D+00 RLast= 5.16D-02 DXMaxT set to 3.00D-01
 The second derivative matrix:
                          R1        R2        R3        R4        A1
           R1           1.60260
           R2           0.00502   0.01173
           R3           0.08843   0.00312   0.59238
           R4           0.11287   0.00570   0.06349   0.62240
           A1          -0.04252  -0.02106  -0.02068  -0.02389   0.14193
           A2           0.03815   0.00195   0.02229   0.02814  -0.00677
           A3          -0.00479  -0.01367  -0.00172  -0.00033  -0.02022
           D1          -0.00313  -0.00058  -0.00161  -0.00201   0.00017
           D2           0.00240   0.00321   0.00101   0.00088   0.00419
                          A2        A3        D1        D2
           A2           0.17033
           A3           0.00021   0.23509
           D1          -0.00062  -0.00042   0.00235
           D2           0.00016   0.00338   0.00006   0.01403
 ITU=  1  1  0
     Eigenvalues ---    0.00223   0.00533   0.01580   0.13875   0.16774
     Eigenvalues ---    0.23965   0.54215   0.65416   1.62701
 En-DIIS/RFO-DIIS/Sim-DIIS IScMMF=       -3 using points:     3    2    1
 RFO step:  Lambda=-1.47995135D-06.
 DIIS inversion failure, remove point   3.
 RFO-DIIS uses    2 points instead of    3
 DidBck=F Rises=F RFO-DIIS coefs:    1.16847   -0.16847    0.00000
 Iteration  1 RMS(Cart)=  0.00385506 RMS(Int)=  0.00001351
 Iteration  2 RMS(Cart)=  0.00001046 RMS(Int)=  0.00000000
 Iteration  3 RMS(Cart)=  0.00000000 RMS(Int)=  0.00000000
 Variable       Old X    -DE/DX   Delta X   Delta X   Delta X     New X
                                 (Linear)    (Quad)   (Total)
    R1        2.14755   0.00065  -0.00009   0.00036   0.00027   2.14782
    R2        4.48215   0.00003  -0.00798   0.00200  -0.00598   4.47617
    R3        1.82421   0.00025  -0.00007   0.00029   0.00023   1.82443
    R4        1.82473   0.00033  -0.00005   0.00040   0.00036   1.82509
    A1        2.47051  -0.00032  -0.00140  -0.00178  -0.00317   2.46733
    A2        1.80917   0.00005   0.00006  -0.00003   0.00004   1.80920
    A3        2.11523  -0.00005  -0.00077  -0.00011  -0.00088   2.11435
    D1        0.25083  -0.00002  -0.00126  -0.00767  -0.00893   0.24190
    D2        1.59327   0.00002   0.00281   0.00135   0.00416   1.59743
         Item               Value     Threshold  Converged?
 Maximum Force            0.000648     0.000450     NO 
 RMS     Force            0.000279     0.000300     YES
 Maximum Displacement     0.006954     0.001800     NO 
 RMS     Displacement     0.003857     0.001200     NO 
 Predicted change in Energy=-7.400413D-07
 GradGradGradGradGradGradGradGradGradGradGradGradGradGradGradGradGradGrad

                          Input orientation:                          
 ---------------------------------------------------------------------
 Center     Atomic      Atomic             Coordinates (Angstroms)
 Number     Number       Type             X           Y           Z
 ---------------------------------------------------------------------
      1          6           0        0.918126    0.475331    0.045102
      2          8           0        1.755229   -0.290824   -0.018755
      3          8           0       -2.002448   -0.122743   -0.104156
      4          1           0       -2.216803   -0.229262    0.831150
      5          1           0       -1.437477    0.660386   -0.120912
 ---------------------------------------------------------------------
                    Distance matrix (angstroms):
                    1          2          3          4          5
     1  C    0.000000
     2  O    1.136579   0.000000
     3  O    2.984915   3.762404   0.000000
     4  H    3.307885   4.062409   0.965449   0.000000
     5  H    2.368686   3.332958   0.965797   1.518303   0.000000
 Stoichiometry    CH2O2
 Framework group  C1[X(CH2O2)]
 Deg. of freedom     9
 Full point group                 C1      NOp   1
 Largest Abelian subgroup         C1      NOp   1
 Largest concise Abelian subgroup C1      NOp   1
                         Standard orientation:                         
 ---------------------------------------------------------------------
 Center     Atomic      Atomic             Coordinates (Angstroms)
 Number     Number       Type             X           Y           Z
 ---------------------------------------------------------------------
      1          6           0        0.923683    0.475655    0.044332
      2          8           0        1.760107   -0.291399   -0.017604
      3          8           0       -1.997398   -0.120111   -0.104225
      4          1           0       -2.212057   -0.224319    0.831271
      5          1           0       -1.431715    0.662466   -0.122628
 ---------------------------------------------------------------------
 Rotational constants (GHZ):          89.1061972           3.8518201           3.7394490
 Standard basis: 6-31G(d,p) (6D, 7F)
 There are    55 symmetry adapted cartesian basis functions of A   symmetry.
 There are    55 symmetry adapted basis functions of A   symmetry.
    55 basis functions,    98 primitive gaussians,    55 cartesian basis functions
    12 alpha electrons       12 beta electrons
       nuclear repulsion energy        53.5886865644 Hartrees.
 NAtoms=    5 NActive=    5 NUniq=    5 SFac= 1.00D+00 NAtFMM=   60 NAOKFM=F Big=F
 Integral buffers will be    131072 words long.
 Raffenetti 2 integral format.
 Two-electron integral symmetry is turned on.
 One-electron integrals computed using PRISM.
 NBasis=    55 RedAO= T EigKep=  7.25D-03  NBF=    55
 NBsUse=    55 1.00D-06 EigRej= -1.00D+00 NBFU=    55
 Initial guess from the checkpoint file:  "Z:\Desktop\0620\H2OCO(1).chk"
 B after Tr=     0.000000    0.000000    0.000000
         Rot=    1.000000   -0.000713    0.000024    0.000049 Ang=  -0.08 deg.
 Keep R1 ints in memory in canonical form, NReq=2064058.
 Requested convergence on RMS density matrix=1.00D-08 within 128 cycles.
 Requested convergence on MAX density matrix=1.00D-06.
 Requested convergence on             energy=1.00D-06.
 No special actions if energy rises.
 SCF Done:  E(RB3LYP) =  -189.733255245     A.U. after    8 cycles
            NFock=  8  Conv=0.17D-08     -V/T= 2.0084
 Calling FoFJK, ICntrl=      2127 FMM=F ISym2X=0 I1Cent= 0 IOpClX= 0 NMat=1 NMatS=1 NMatT=0.
 ***** Axes restored to original set *****
 -------------------------------------------------------------------
 Center     Atomic                   Forces (Hartrees/Bohr)
 Number     Number              X              Y              Z
 -------------------------------------------------------------------
      1        6          -0.000066383    0.000359316    0.000041886
      2        8           0.000131979   -0.000306498   -0.000034373
      3        8          -0.000026088   -0.000115122   -0.000111999
      4        1          -0.000052153   -0.000027225    0.000126560
      5        1           0.000012645    0.000089528   -0.000022074
 -------------------------------------------------------------------
 Cartesian Forces:  Max     0.000359316 RMS     0.000141993

 GradGradGradGradGradGradGradGradGradGradGradGradGradGradGradGradGradGrad
 Berny optimization.
 Using GEDIIS/GDIIS optimizer.
 FormGI is forming the generalized inverse of G from B-inverse, IUseBI=4.
 Internal  Forces:  Max     0.000305805 RMS     0.000161074
 Search for a local minimum.
 Step number   4 out of a maximum of   20
 All quantities printed in internal units (Hartrees-Bohrs-Radians)
 Mixed Optimization -- En-DIIS/RFO-DIIS
 Swapping is turned off.
 Update second derivatives using D2CorX and points    1    2    3    4
 DE= -1.21D-06 DEPred=-7.40D-07 R= 1.64D+00
 TightC=F SS=  1.41D+00  RLast= 1.20D-02 DXNew= 5.0454D-01 3.5985D-02
 Trust test= 1.64D+00 RLast= 1.20D-02 DXMaxT set to 3.00D-01
 The second derivative matrix:
                          R1        R2        R3        R4        A1
           R1           1.52207
           R2          -0.02671   0.01444
           R3           0.04592  -0.00749   0.57242
           R4           0.06879  -0.01029   0.04079   0.59839
           A1           0.07709  -0.01593   0.02541   0.03763   0.07900
           A2           0.02072   0.00118   0.01556   0.01915   0.00218
           A3           0.00640  -0.01171   0.00317   0.00552  -0.03042
           D1          -0.00007   0.00030  -0.00013  -0.00036  -0.00349
           D2          -0.00497   0.00255  -0.00196  -0.00294   0.00904
                          A2        A3        D1        D2
           A2           0.16901
           A3           0.00162   0.23383
           D1          -0.00009  -0.00080   0.00224
           D2          -0.00052   0.00407   0.00030   0.01367
 ITU=  1  1  1  0
     Eigenvalues ---    0.00179   0.00569   0.01591   0.07188   0.16751
     Eigenvalues ---    0.23993   0.54260   0.62465   1.53512
 En-DIIS/RFO-DIIS/Sim-DIIS IScMMF=       -3 using points:     4    3    2    1
 RFO step:  Lambda=-3.00547268D-06.
 DIIS inversion failure, remove point   4.
 RFO-DIIS uses    3 points instead of    4
 DidBck=F Rises=F RFO-DIIS coefs:    2.86709   -2.00000    0.13291    0.00000
 Iteration  1 RMS(Cart)=  0.00749803 RMS(Int)=  0.00008479
 Iteration  2 RMS(Cart)=  0.00006432 RMS(Int)=  0.00000001
 Iteration  3 RMS(Cart)=  0.00000001 RMS(Int)=  0.00000000
 Variable       Old X    -DE/DX   Delta X   Delta X   Delta X     New X
                                 (Linear)    (Quad)   (Total)
    R1        2.14782   0.00031   0.00058  -0.00006   0.00053   2.14835
    R2        4.47617   0.00006  -0.00487  -0.00066  -0.00554   4.47063
    R3        1.82443   0.00014   0.00048   0.00003   0.00050   1.82494
    R4        1.82509   0.00016   0.00070  -0.00004   0.00066   1.82575
    A1        2.46733  -0.00030  -0.00482  -0.00437  -0.00919   2.45814
    A2        1.80920   0.00004   0.00002   0.00028   0.00030   1.80950
    A3        2.11435  -0.00003  -0.00104  -0.00086  -0.00190   2.11245
    D1        0.24190  -0.00001  -0.01568  -0.00401  -0.01969   0.22221
    D2        1.59743   0.00002   0.00555   0.00455   0.01010   1.60753
         Item               Value     Threshold  Converged?
 Maximum Force            0.000306     0.000450     YES
 RMS     Force            0.000161     0.000300     YES
 Maximum Displacement     0.012738     0.001800     NO 
 RMS     Displacement     0.007512     0.001200     NO 
 Predicted change in Energy=-1.481442D-06
 GradGradGradGradGradGradGradGradGradGradGradGradGradGradGradGradGradGrad

                          Input orientation:                          
 ---------------------------------------------------------------------
 Center     Atomic      Atomic             Coordinates (Angstroms)
 Number     Number       Type             X           Y           Z
 ---------------------------------------------------------------------
      1          6           0        0.918084    0.480216    0.041135
      2          8           0        1.748489   -0.294106   -0.016326
      3          8           0       -1.997513   -0.124108   -0.104107
      4          1           0       -2.217127   -0.230599    0.830256
      5          1           0       -1.435307    0.661486   -0.118530
 ---------------------------------------------------------------------
                    Distance matrix (angstroms):
                    1          2          3          4          5
     1  C    0.000000
     2  O    1.136858   0.000000
     3  O    2.981109   3.750884   0.000000
     4  H    3.310215   4.055471   0.965714   0.000000
     5  H    2.365756   3.325681   0.966148   1.518964   0.000000
 Stoichiometry    CH2O2
 Framework group  C1[X(CH2O2)]
 Deg. of freedom     9
 Full point group                 C1      NOp   1
 Largest Abelian subgroup         C1      NOp   1
 Largest concise Abelian subgroup C1      NOp   1
                         Standard orientation:                         
 ---------------------------------------------------------------------
 Center     Atomic      Atomic             Coordinates (Angstroms)
 Number     Number       Type             X           Y           Z
 ---------------------------------------------------------------------
      1          6           0        0.924309    0.480324    0.043895
      2          8           0        1.753822   -0.294659   -0.017385
      3          8           0       -1.991969   -0.119871   -0.104770
      4          1           0       -2.211829   -0.230839    0.829013
      5          1           0       -1.428850    0.665133   -0.115143
 ---------------------------------------------------------------------
 Rotational constants (GHZ):          87.7883384           3.8724460           3.7562589
 Standard basis: 6-31G(d,p) (6D, 7F)
 There are    55 symmetry adapted cartesian basis functions of A   symmetry.
 There are    55 symmetry adapted basis functions of A   symmetry.
    55 basis functions,    98 primitive gaussians,    55 cartesian basis functions
    12 alpha electrons       12 beta electrons
       nuclear repulsion energy        53.6243112795 Hartrees.
 NAtoms=    5 NActive=    5 NUniq=    5 SFac= 1.00D+00 NAtFMM=   60 NAOKFM=F Big=F
 Integral buffers will be    131072 words long.
 Raffenetti 2 integral format.
 Two-electron integral symmetry is turned on.
 One-electron integrals computed using PRISM.
 NBasis=    55 RedAO= T EigKep=  7.27D-03  NBF=    55
 NBsUse=    55 1.00D-06 EigRej= -1.00D+00 NBFU=    55
 Initial guess from the checkpoint file:  "Z:\Desktop\0620\H2OCO(1).chk"
 B after Tr=     0.000000    0.000000    0.000000
         Rot=    0.999999   -0.001221    0.000053    0.000185 Ang=  -0.14 deg.
 Keep R1 ints in memory in canonical form, NReq=2064058.
 Requested convergence on RMS density matrix=1.00D-08 within 128 cycles.
 Requested convergence on MAX density matrix=1.00D-06.
 Requested convergence on             energy=1.00D-06.
 No special actions if energy rises.
 SCF Done:  E(RB3LYP) =  -189.733257416     A.U. after    8 cycles
            NFock=  8  Conv=0.41D-08     -V/T= 2.0084
 Calling FoFJK, ICntrl=      2127 FMM=F ISym2X=0 I1Cent= 0 IOpClX= 0 NMat=1 NMatS=1 NMatT=0.
 ***** Axes restored to original set *****
 -------------------------------------------------------------------
 Center     Atomic                   Forces (Hartrees/Bohr)
 Number     Number              X              Y              Z
 -------------------------------------------------------------------
      1        6           0.000406931   -0.000138407    0.000024210
      2        8          -0.000323829    0.000167182   -0.000006926
      3        8           0.000108106    0.000115118    0.000121252
      4        1           0.000024254    0.000015784   -0.000116356
      5        1          -0.000215463   -0.000159678   -0.000022181
 -------------------------------------------------------------------
 Cartesian Forces:  Max     0.000406931 RMS     0.000172168

 GradGradGradGradGradGradGradGradGradGradGradGradGradGradGradGradGradGrad
 Berny optimization.
 Using GEDIIS/GDIIS optimizer.
 FormGI is forming the generalized inverse of G from B-inverse, IUseBI=4.
 Internal  Forces:  Max     0.000350001 RMS     0.000159194
 Search for a local minimum.
 Step number   5 out of a maximum of   20
 All quantities printed in internal units (Hartrees-Bohrs-Radians)
 Mixed Optimization -- En-DIIS/RFO-DIIS
 Swapping is turned off.
 Update second derivatives using D2CorX and points    1    2    3    4    5
 DE= -2.17D-06 DEPred=-1.48D-06 R= 1.47D+00
 TightC=F SS=  1.41D+00  RLast= 2.47D-02 DXNew= 5.0454D-01 7.4059D-02
 Trust test= 1.47D+00 RLast= 2.47D-02 DXMaxT set to 3.00D-01
 The second derivative matrix:
                          R1        R2        R3        R4        A1
           R1           1.79229
           R2          -0.05167   0.01315
           R3           0.14409  -0.01805   0.60762
           R4           0.20916  -0.02360   0.09169   0.67130
           A1           0.09716  -0.00910   0.03525   0.04837   0.05266
           A2           0.03076  -0.00118   0.01874   0.02428   0.00587
           A3           0.01906  -0.01279   0.00761   0.01199  -0.03316
           D1          -0.00827   0.00113  -0.00311  -0.00463  -0.00418
           D2          -0.00283   0.00191  -0.00125  -0.00182   0.01062
                          A2        A3        D1        D2
           A2           0.16891
           A3           0.00208   0.23304
           D1          -0.00039  -0.00118   0.00249
           D2          -0.00055   0.00443   0.00023   0.01363
 ITU=  1  1  1  1  0
     Eigenvalues ---    0.00178   0.00527   0.01355   0.04356   0.16709
     Eigenvalues ---    0.23946   0.54239   0.68240   1.85960
 En-DIIS/RFO-DIIS/Sim-DIIS IScMMF=       -3 using points:     5    4    3    2    1
 RFO step:  Lambda=-1.68596528D-06.
 DIIS inversion failure, remove point   5.
 DIIS inversion failure, remove point   4.
 RFO-DIIS uses    3 points instead of    5
 DidBck=F Rises=F RFO-DIIS coefs:    1.94116   -1.79097    0.84982    0.00000    0.00000
 Iteration  1 RMS(Cart)=  0.00517939 RMS(Int)=  0.00004040
 Iteration  2 RMS(Cart)=  0.00003262 RMS(Int)=  0.00000000
 Iteration  3 RMS(Cart)=  0.00000000 RMS(Int)=  0.00000000
 Variable       Old X    -DE/DX   Delta X   Delta X   Delta X     New X
                                 (Linear)    (Quad)   (Total)
    R1        2.14835  -0.00035   0.00026  -0.00012   0.00015   2.14850
    R2        4.47063   0.00008  -0.00013   0.00135   0.00122   4.47185
    R3        1.82494  -0.00012   0.00028  -0.00014   0.00014   1.82507
    R4        1.82575  -0.00018   0.00032  -0.00018   0.00014   1.82589
    A1        2.45814  -0.00022  -0.00596  -0.00307  -0.00903   2.44911
    A2        1.80950   0.00000   0.00025  -0.00001   0.00024   1.80973
    A3        2.11245  -0.00006  -0.00104  -0.00075  -0.00179   2.11066
    D1        0.22221   0.00001  -0.01094   0.00223  -0.00871   0.21350
    D2        1.60753   0.00001   0.00597   0.00216   0.00814   1.61567
         Item               Value     Threshold  Converged?
 Maximum Force            0.000350     0.000450     YES
 RMS     Force            0.000159     0.000300     YES
 Maximum Displacement     0.008218     0.001800     NO 
 RMS     Displacement     0.005187     0.001200     NO 
 Predicted change in Energy=-7.810602D-07
 GradGradGradGradGradGradGradGradGradGradGradGradGradGradGradGradGradGrad

                          Input orientation:                          
 ---------------------------------------------------------------------
 Center     Atomic      Atomic             Coordinates (Angstroms)
 Number     Number       Type             X           Y           Z
 ---------------------------------------------------------------------
      1          6           0        0.919856    0.484349    0.039695
      2          8           0        1.744140   -0.296735   -0.015844
      3          8           0       -1.994106   -0.125779   -0.103821
      4          1           0       -2.218609   -0.230834    0.829618
      5          1           0       -1.434654    0.661887   -0.117220
 ---------------------------------------------------------------------
                    Distance matrix (angstroms):
                    1          2          3          4          5
     1  C    0.000000
     2  O    1.136935   0.000000
     3  O    2.980609   3.743187   0.000000
     4  H    3.314427   4.052471   0.965788   0.000000
     5  H    2.366402   3.321741   0.966222   1.519223   0.000000
 Stoichiometry    CH2O2
 Framework group  C1[X(CH2O2)]
 Deg. of freedom     9
 Full point group                 C1      NOp   1
 Largest Abelian subgroup         C1      NOp   1
 Largest concise Abelian subgroup C1      NOp   1
                         Standard orientation:                         
 ---------------------------------------------------------------------
 Center     Atomic      Atomic             Coordinates (Angstroms)
 Number     Number       Type             X           Y           Z
 ---------------------------------------------------------------------
      1          6           0        0.926176    0.484451    0.043148
      2          8           0        1.749261   -0.297565   -0.016884
      3          8           0       -1.988691   -0.120272   -0.104805
      4          1           0       -2.213608   -0.230604    0.827925
      5          1           0       -1.428013    0.666591   -0.113308
 ---------------------------------------------------------------------
 Rotational constants (GHZ):          86.6547688           3.8849497           3.7657500
 Standard basis: 6-31G(d,p) (6D, 7F)
 There are    55 symmetry adapted cartesian basis functions of A   symmetry.
 There are    55 symmetry adapted basis functions of A   symmetry.
    55 basis functions,    98 primitive gaussians,    55 cartesian basis functions
    12 alpha electrons       12 beta electrons
       nuclear repulsion energy        53.6427610491 Hartrees.
 NAtoms=    5 NActive=    5 NUniq=    5 SFac= 1.00D+00 NAtFMM=   60 NAOKFM=F Big=F
 Integral buffers will be    131072 words long.
 Raffenetti 2 integral format.
 Two-electron integral symmetry is turned on.
 One-electron integrals computed using PRISM.
 NBasis=    55 RedAO= T EigKep=  7.28D-03  NBF=    55
 NBsUse=    55 1.00D-06 EigRej= -1.00D+00 NBFU=    55
 Initial guess from the checkpoint file:  "Z:\Desktop\0620\H2OCO(1).chk"
 B after Tr=     0.000000    0.000000    0.000000
         Rot=    1.000000    0.000524    0.000046    0.000198 Ang=   0.06 deg.
 Keep R1 ints in memory in canonical form, NReq=2064058.
 Requested convergence on RMS density matrix=1.00D-08 within 128 cycles.
 Requested convergence on MAX density matrix=1.00D-06.
 Requested convergence on             energy=1.00D-06.
 No special actions if energy rises.
 SCF Done:  E(RB3LYP) =  -189.733258959     A.U. after    8 cycles
            NFock=  8  Conv=0.31D-08     -V/T= 2.0084
 Calling FoFJK, ICntrl=      2127 FMM=F ISym2X=0 I1Cent= 0 IOpClX= 0 NMat=1 NMatS=1 NMatT=0.
 ***** Axes restored to original set *****
 -------------------------------------------------------------------
 Center     Atomic                   Forces (Hartrees/Bohr)
 Number     Number              X              Y              Z
 -------------------------------------------------------------------
      1        6           0.000487369   -0.000318201    0.000018716
      2        8          -0.000420566    0.000318680    0.000002591
      3        8           0.000148080    0.000164453    0.000185858
      4        1           0.000056243    0.000027771   -0.000181413
      5        1          -0.000271125   -0.000192703   -0.000025751
 -------------------------------------------------------------------
 Cartesian Forces:  Max     0.000487369 RMS     0.000237941

 GradGradGradGradGradGradGradGradGradGradGradGradGradGradGradGradGradGrad
 Berny optimization.
 Using GEDIIS/GDIIS optimizer.
 FormGI is forming the generalized inverse of G from B-inverse, IUseBI=4.
 Internal  Forces:  Max     0.000523926 RMS     0.000216099
 Search for a local minimum.
 Step number   6 out of a maximum of   20
 All quantities printed in internal units (Hartrees-Bohrs-Radians)
 Mixed Optimization -- En-DIIS/RFO-DIIS
 Swapping is turned off.
 Update second derivatives using D2CorX and points    1    2    3    4    5
                                                      6
 DE= -1.54D-06 DEPred=-7.81D-07 R= 1.98D+00
 TightC=F SS=  1.41D+00  RLast= 1.51D-02 DXNew= 5.0454D-01 4.5342D-02
 Trust test= 1.98D+00 RLast= 1.51D-02 DXMaxT set to 3.00D-01
 The second derivative matrix:
                          R1        R2        R3        R4        A1
           R1           1.95590
           R2          -0.03550   0.00878
           R3           0.21086  -0.01281   0.63461
           R4           0.29476  -0.01521   0.12663   0.71610
           A1           0.02806   0.00148   0.01038   0.01215   0.03031
           A2           0.04853  -0.00153   0.02559   0.03358   0.00372
           A3           0.04285  -0.01160   0.01707   0.02439  -0.04439
           D1          -0.01428   0.00069  -0.00555  -0.00778  -0.00182
           D2           0.00689   0.00137   0.00248   0.00329   0.01004
                          A2        A3        D1        D2
           A2           0.17021
           A3           0.00446   0.23536
           D1          -0.00102  -0.00210   0.00272
           D2           0.00014   0.00608  -0.00015   0.01407
 ITU=  1  1  1  1  1  0
     Eigenvalues ---    0.00215   0.00513   0.00825   0.02846   0.16707
     Eigenvalues ---    0.24366   0.54233   0.70570   2.06531
 En-DIIS/RFO-DIIS/Sim-DIIS IScMMF=       -3 using points:     6    5    4    3    2    1
 RFO step:  Lambda=-1.90591850D-06.
 DIIS inversion failure, remove point   6.
 DIIS inversion failure, remove point   5.
 DIIS inversion failure, remove point   4.
 RFO-DIIS uses    3 points instead of    6
 DidBck=F Rises=F RFO-DIIS coefs:    2.13307   -2.00000    0.86693    0.00000    0.00000
                  RFO-DIIS coefs:    0.00000
 Iteration  1 RMS(Cart)=  0.00575085 RMS(Int)=  0.00004110
 Iteration  2 RMS(Cart)=  0.00003227 RMS(Int)=  0.00000000
 Iteration  3 RMS(Cart)=  0.00000000 RMS(Int)=  0.00000000
 Variable       Old X    -DE/DX   Delta X   Delta X   Delta X     New X
                                 (Linear)    (Quad)   (Total)
    R1        2.14850  -0.00052  -0.00029   0.00008  -0.00021   2.14828
    R2        4.47185   0.00007   0.00618   0.00222   0.00840   4.48026
    R3        1.82507  -0.00019  -0.00028   0.00008  -0.00019   1.82488
    R4        1.82589  -0.00027  -0.00042   0.00005  -0.00036   1.82553
    A1        2.44911  -0.00013  -0.00226  -0.00952  -0.01178   2.43734
    A2        1.80973  -0.00002   0.00001   0.00015   0.00016   1.80990
    A3        2.11066  -0.00010  -0.00037  -0.00249  -0.00287   2.10779
    D1        0.21350   0.00002   0.00719  -0.00421   0.00298   0.21648
    D2        1.61567  -0.00001   0.00046   0.00612   0.00659   1.62225
         Item               Value     Threshold  Converged?
 Maximum Force            0.000524     0.000450     NO 
 RMS     Force            0.000216     0.000300     YES
 Maximum Displacement     0.008642     0.001800     NO 
 RMS     Displacement     0.005755     0.001200     NO 
 Predicted change in Energy=-5.663712D-07
 GradGradGradGradGradGradGradGradGradGradGradGradGradGradGradGradGradGrad

                          Input orientation:                          
 ---------------------------------------------------------------------
 Center     Atomic      Atomic             Coordinates (Angstroms)
 Number     Number       Type             X           Y           Z
 ---------------------------------------------------------------------
      1          6           0        0.923574    0.488923    0.041242
      2          8           0        1.740343   -0.299625   -0.017474
      3          8           0       -1.991139   -0.128300   -0.103257
      4          1           0       -2.220521   -0.230017    0.829259
      5          1           0       -1.435632    0.661907   -0.117341
 ---------------------------------------------------------------------
                    Distance matrix (angstroms):
                    1          2          3          4          5
     1  C    0.000000
     2  O    1.136823   0.000000
     3  O    2.982850   3.736397   0.000000
     4  H    3.320118   4.050956   0.965686   0.000000
     5  H    2.370849   3.319839   0.966030   1.519089   0.000000
 Stoichiometry    CH2O2
 Framework group  C1[X(CH2O2)]
 Deg. of freedom     9
 Full point group                 C1      NOp   1
 Largest Abelian subgroup         C1      NOp   1
 Largest concise Abelian subgroup C1      NOp   1
                         Standard orientation:                         
 ---------------------------------------------------------------------
 Center     Atomic      Atomic             Coordinates (Angstroms)
 Number     Number       Type             X           Y           Z
 ---------------------------------------------------------------------
      1          6           0        0.929656    0.489333    0.041977
      2          8           0        1.744749   -0.301000   -0.016012
      3          8           0       -1.986296   -0.121602   -0.104223
      4          1           0       -2.216494   -0.222577    0.828174
      5          1           0       -1.429067    0.667394   -0.118158
 ---------------------------------------------------------------------
 Rotational constants (GHZ):          85.3330795           3.8943082           3.7719365
 Standard basis: 6-31G(d,p) (6D, 7F)
 There are    55 symmetry adapted cartesian basis functions of A   symmetry.
 There are    55 symmetry adapted basis functions of A   symmetry.
    55 basis functions,    98 primitive gaussians,    55 cartesian basis functions
    12 alpha electrons       12 beta electrons
       nuclear repulsion energy        53.6533295570 Hartrees.
 NAtoms=    5 NActive=    5 NUniq=    5 SFac= 1.00D+00 NAtFMM=   60 NAOKFM=F Big=F
 Integral buffers will be    131072 words long.
 Raffenetti 2 integral format.
 Two-electron integral symmetry is turned on.
 One-electron integrals computed using PRISM.
 NBasis=    55 RedAO= T EigKep=  7.30D-03  NBF=    55
 NBsUse=    55 1.00D-06 EigRej= -1.00D+00 NBFU=    55
 Initial guess from the checkpoint file:  "Z:\Desktop\0620\H2OCO(1).chk"
 B after Tr=     0.000000    0.000000    0.000000
         Rot=    0.999996    0.002637    0.000040    0.000262 Ang=   0.30 deg.
 Keep R1 ints in memory in canonical form, NReq=2064058.
 Requested convergence on RMS density matrix=1.00D-08 within 128 cycles.
 Requested convergence on MAX density matrix=1.00D-06.
 Requested convergence on             energy=1.00D-06.
 No special actions if energy rises.
 SCF Done:  E(RB3LYP) =  -189.733260687     A.U. after    8 cycles
            NFock=  8  Conv=0.40D-08     -V/T= 2.0084
 Calling FoFJK, ICntrl=      2127 FMM=F ISym2X=0 I1Cent= 0 IOpClX= 0 NMat=1 NMatS=1 NMatT=0.
 ***** Axes restored to original set *****
 -------------------------------------------------------------------
 Center     Atomic                   Forces (Hartrees/Bohr)
 Number     Number              X              Y              Z
 -------------------------------------------------------------------
      1        6           0.000194323   -0.000203275    0.000015227
      2        8          -0.000177784    0.000164476    0.000003448
      3        8           0.000106575    0.000039772    0.000095199
      4        1           0.000045011    0.000009674   -0.000082759
      5        1          -0.000168125   -0.000010646   -0.000031114
 -------------------------------------------------------------------
 Cartesian Forces:  Max     0.000203275 RMS     0.000114979

 GradGradGradGradGradGradGradGradGradGradGradGradGradGradGradGradGradGrad
 Berny optimization.
 Using GEDIIS/GDIIS optimizer.
 FormGI is forming the generalized inverse of G from B-inverse, IUseBI=4.
 Internal  Forces:  Max     0.000241952 RMS     0.000115228
 Search for a local minimum.
 Step number   7 out of a maximum of   20
 All quantities printed in internal units (Hartrees-Bohrs-Radians)
 Mixed Optimization -- En-DIIS/RFO-DIIS
 Swapping is turned off.
 Update second derivatives using D2CorX and points    1    2    3    4    5
                                                      6    7
 DE= -1.73D-06 DEPred=-5.66D-07 R= 3.05D+00
 TightC=F SS=  1.41D+00  RLast= 1.64D-02 DXNew= 5.0454D-01 4.9298D-02
 Trust test= 3.05D+00 RLast= 1.64D-02 DXMaxT set to 3.00D-01
 The second derivative matrix:
                          R1        R2        R3        R4        A1
           R1           1.71949
           R2          -0.00019   0.00666
           R3           0.12457   0.00055   0.60322
           R4           0.17048   0.00330   0.08129   0.65078
           A1          -0.01785   0.00308  -0.00738  -0.01196   0.03209
           A2           0.03923   0.00069   0.02238   0.02871  -0.00045
           A3           0.01658  -0.00461   0.00822   0.01057  -0.06511
           D1          -0.00570  -0.00059  -0.00243  -0.00327   0.00015
           D2           0.00271   0.00263   0.00114   0.00110   0.00587
                          A2        A3        D1        D2
           A2           0.17025
           A3           0.00545   0.24274
           D1          -0.00074  -0.00151   0.00242
           D2           0.00052   0.00919  -0.00011   0.01504
 ITU=  1  1  1  1  1  1  0
     Eigenvalues ---    0.00227   0.00540   0.00648   0.02295   0.16724
     Eigenvalues ---    0.26098   0.54231   0.67129   1.76377
 En-DIIS/RFO-DIIS/Sim-DIIS IScMMF=       -3 using points:     7    6    5    4    3    2    1
 RFO step:  Lambda=-6.61305761D-07.
 DIIS inversion failure, remove point   7.
 DIIS inversion failure, remove point   6.
 DIIS inversion failure, remove point   5.
 DIIS inversion failure, remove point   4.
 RFO-DIIS uses    3 points instead of    7
 DidBck=F Rises=F RFO-DIIS coefs:    1.75107   -1.29513    0.54406    0.00000    0.00000
                  RFO-DIIS coefs:    0.00000    0.00000
 Iteration  1 RMS(Cart)=  0.00300259 RMS(Int)=  0.00001754
 Iteration  2 RMS(Cart)=  0.00001346 RMS(Int)=  0.00000000
 Iteration  3 RMS(Cart)=  0.00000000 RMS(Int)=  0.00000000
 Variable       Old X    -DE/DX   Delta X   Delta X   Delta X     New X
                                 (Linear)    (Quad)   (Total)
    R1        2.14828  -0.00024  -0.00024   0.00004  -0.00020   2.14808
    R2        4.48026   0.00002   0.00565  -0.00075   0.00490   4.48516
    R3        1.82488  -0.00009  -0.00022   0.00003  -0.00019   1.82470
    R4        1.82553  -0.00013  -0.00035   0.00005  -0.00030   1.82523
    A1        2.43734  -0.00001  -0.00393  -0.00110  -0.00503   2.43230
    A2        1.80990  -0.00002  -0.00001  -0.00005  -0.00006   1.80984
    A3        2.10779  -0.00018  -0.00118  -0.00115  -0.00233   2.10547
    D1        0.21648   0.00001   0.00698   0.00037   0.00735   0.22384
    D2        1.62225  -0.00004   0.00052  -0.00167  -0.00115   1.62110
         Item               Value     Threshold  Converged?
 Maximum Force            0.000242     0.000450     YES
 RMS     Force            0.000115     0.000300     YES
 Maximum Displacement     0.004041     0.001800     NO 
 RMS     Displacement     0.003003     0.001200     NO 
 Predicted change in Energy=-2.721256D-07
 GradGradGradGradGradGradGradGradGradGradGradGradGradGradGradGradGradGrad

                          Input orientation:                          
 ---------------------------------------------------------------------
 Center     Atomic      Atomic             Coordinates (Angstroms)
 Number     Number       Type             X           Y           Z
 ---------------------------------------------------------------------
      1          6           0        0.924749    0.490520    0.043381
      2          8           0        1.738317   -0.300924   -0.018630
      3          8           0       -1.990173   -0.129286   -0.103110
      4          1           0       -2.219351   -0.229695    0.829496
      5          1           0       -1.436916    0.662274   -0.118708
 ---------------------------------------------------------------------
                    Distance matrix (angstroms):
                    1          2          3          4          5
     1  C    0.000000
     2  O    1.136715   0.000000
     3  O    2.983687   3.733395   0.000000
     4  H    3.319947   4.048151   0.965587   0.000000
     5  H    2.373443   3.319619   0.965870   1.518850   0.000000
 Stoichiometry    CH2O2
 Framework group  C1[X(CH2O2)]
 Deg. of freedom     9
 Full point group                 C1      NOp   1
 Largest Abelian subgroup         C1      NOp   1
 Largest concise Abelian subgroup C1      NOp   1
                         Standard orientation:                         
 ---------------------------------------------------------------------
 Center     Atomic      Atomic             Coordinates (Angstroms)
 Number     Number       Type             X           Y           Z
 ---------------------------------------------------------------------
      1          6           0        0.930983    0.491303    0.041655
      2          8           0        1.742734   -0.302351   -0.015753
      3          8           0       -1.985283   -0.122405   -0.103762
      4          1           0       -2.215350   -0.217534    0.829179
      5          1           0       -1.430158    0.667766   -0.122988
 ---------------------------------------------------------------------
 Rotational constants (GHZ):          84.7817886           3.8987483           3.7750913
 Standard basis: 6-31G(d,p) (6D, 7F)
 There are    55 symmetry adapted cartesian basis functions of A   symmetry.
 There are    55 symmetry adapted basis functions of A   symmetry.
    55 basis functions,    98 primitive gaussians,    55 cartesian basis functions
    12 alpha electrons       12 beta electrons
       nuclear repulsion energy        53.6609667360 Hartrees.
 NAtoms=    5 NActive=    5 NUniq=    5 SFac= 1.00D+00 NAtFMM=   60 NAOKFM=F Big=F
 Integral buffers will be    131072 words long.
 Raffenetti 2 integral format.
 Two-electron integral symmetry is turned on.
 One-electron integrals computed using PRISM.
 NBasis=    55 RedAO= T EigKep=  7.31D-03  NBF=    55
 NBsUse=    55 1.00D-06 EigRej= -1.00D+00 NBFU=    55
 Initial guess from the checkpoint file:  "Z:\Desktop\0620\H2OCO(1).chk"
 B after Tr=     0.000000    0.000000    0.000000
         Rot=    0.999999    0.001526   -0.000012    0.000096 Ang=   0.18 deg.
 Keep R1 ints in memory in canonical form, NReq=2064058.
 Requested convergence on RMS density matrix=1.00D-08 within 128 cycles.
 Requested convergence on MAX density matrix=1.00D-06.
 Requested convergence on             energy=1.00D-06.
 No special actions if energy rises.
 SCF Done:  E(RB3LYP) =  -189.733261324     A.U. after    8 cycles
            NFock=  8  Conv=0.20D-08     -V/T= 2.0084
 Calling FoFJK, ICntrl=      2127 FMM=F ISym2X=0 I1Cent= 0 IOpClX= 0 NMat=1 NMatS=1 NMatT=0.
 ***** Axes restored to original set *****
 -------------------------------------------------------------------
 Center     Atomic                   Forces (Hartrees/Bohr)
 Number     Number              X              Y              Z
 -------------------------------------------------------------------
      1        6          -0.000032416   -0.000044032    0.000014507
      2        8           0.000029058   -0.000008900   -0.000000671
      3        8           0.000064060   -0.000064386    0.000006835
      4        1           0.000019107   -0.000008467    0.000012391
      5        1          -0.000079809    0.000125785   -0.000033062
 -------------------------------------------------------------------
 Cartesian Forces:  Max     0.000125785 RMS     0.000049190

 GradGradGradGradGradGradGradGradGradGradGradGradGradGradGradGradGradGrad
 Berny optimization.
 Using GEDIIS/GDIIS optimizer.
 FormGI is forming the generalized inverse of G from B-inverse, IUseBI=4.
 Internal  Forces:  Max     0.000212241 RMS     0.000073445
 Search for a local minimum.
 Step number   8 out of a maximum of   20
 All quantities printed in internal units (Hartrees-Bohrs-Radians)
 Mixed Optimization -- En-DIIS/RFO-DIIS
 Swapping is turned off.
 Update second derivatives using D2CorX and points    1    2    3    4    5
                                                      6    7    8
 DE= -6.37D-07 DEPred=-2.72D-07 R= 2.34D+00
 Trust test= 2.34D+00 RLast= 1.05D-02 DXMaxT set to 3.00D-01
 The second derivative matrix:
                          R1        R2        R3        R4        A1
           R1           1.67288
           R2          -0.00257   0.00829
           R3           0.10376   0.00000   0.59422
           R4           0.14468   0.00210   0.06989   0.63656
           A1           0.02935  -0.00037   0.01009   0.01256   0.03956
           A2           0.02641   0.00143   0.01743   0.02194   0.00141
           A3          -0.11890   0.00563  -0.04272  -0.06031  -0.07819
           D1          -0.00143  -0.00067  -0.00071  -0.00099  -0.00124
           D2          -0.02562   0.00447  -0.00956  -0.01371   0.00359
                          A2        A3        D1        D2
           A2           0.16887
           A3          -0.00445   0.20242
           D1          -0.00009   0.00403   0.00217
           D2          -0.00157   0.00123   0.00103   0.01346
 ITU=  0  1  1  1  1  1  1  0
     Eigenvalues ---    0.00167   0.00565   0.00628   0.01704   0.16717
     Eigenvalues ---    0.21621   0.54236   0.66479   1.71724
 En-DIIS/RFO-DIIS/Sim-DIIS IScMMF=       -3 using points:     8    7    6    5    4    3    2    1
 RFO step:  Lambda=-8.35297425D-07.
 DIIS inversion failure, remove point   8.
 DIIS inversion failure, remove point   7.
 DIIS inversion failure, remove point   6.
 DIIS inversion failure, remove point   5.
 DIIS inversion failure, remove point   4.
 RFO-DIIS uses    3 points instead of    8
 DidBck=F Rises=F RFO-DIIS coefs:    2.42353   -1.56065    0.13711    0.00000    0.00000
                  RFO-DIIS coefs:    0.00000    0.00000    0.00000
 Iteration  1 RMS(Cart)=  0.00486947 RMS(Int)=  0.00002836
 Iteration  2 RMS(Cart)=  0.00002373 RMS(Int)=  0.00000000
 Iteration  3 RMS(Cart)=  0.00000000 RMS(Int)=  0.00000000
 Variable       Old X    -DE/DX   Delta X   Delta X   Delta X     New X
                                 (Linear)    (Quad)   (Total)
    R1        2.14808   0.00003  -0.00026   0.00009  -0.00017   2.14791
    R2        4.48516   0.00000   0.00582  -0.00028   0.00554   4.49070
    R3        1.82470   0.00001  -0.00024   0.00008  -0.00016   1.82454
    R4        1.82523   0.00001  -0.00038   0.00011  -0.00027   1.82496
    A1        2.43230   0.00003  -0.00555  -0.00043  -0.00598   2.42632
    A2        1.80984  -0.00001  -0.00011  -0.00003  -0.00013   1.80970
    A3        2.10547  -0.00021  -0.00292  -0.00122  -0.00414   2.10132
    D1        0.22384   0.00000   0.01006  -0.00087   0.00919   0.23303
    D2        1.62110  -0.00004  -0.00254  -0.00242  -0.00497   1.61613
         Item               Value     Threshold  Converged?
 Maximum Force            0.000212     0.000450     YES
 RMS     Force            0.000073     0.000300     YES
 Maximum Displacement     0.007706     0.001800     NO 
 RMS     Displacement     0.004871     0.001200     NO 
 Predicted change in Energy=-4.071729D-07
 GradGradGradGradGradGradGradGradGradGradGradGradGradGradGradGradGradGrad

                          Input orientation:                          
 ---------------------------------------------------------------------
 Center     Atomic      Atomic             Coordinates (Angstroms)
 Number     Number       Type             X           Y           Z
 ---------------------------------------------------------------------
      1          6           0        0.925230    0.492350    0.046022
      2          8           0        1.734697   -0.302893   -0.019323
      3          8           0       -1.988966   -0.130079   -0.103167
      4          1           0       -2.215273   -0.230080    0.830097
      5          1           0       -1.439061    0.663590   -0.121201
 ---------------------------------------------------------------------
                    Distance matrix (angstroms):
                    1          2          3          4          5
     1  C    0.000000
     2  O    1.136625   0.000000
     3  O    2.983658   3.728614   0.000000
     4  H    3.316540   4.040926   0.965503   0.000000
     5  H    2.376375   3.319218   0.965729   1.518592   0.000000
 Stoichiometry    CH2O2
 Framework group  C1[X(CH2O2)]
 Deg. of freedom     9
 Full point group                 C1      NOp   1
 Largest Abelian subgroup         C1      NOp   1
 Largest concise Abelian subgroup C1      NOp   1
                         Standard orientation:                         
 ---------------------------------------------------------------------
 Center     Atomic      Atomic             Coordinates (Angstroms)
 Number     Number       Type             X           Y           Z
 ---------------------------------------------------------------------
      1          6           0        0.932089    0.493730    0.041687
      2          8           0        1.739706   -0.303998   -0.015772
      3          8           0       -1.983493   -0.123183   -0.103283
      4          1           0       -2.210531   -0.213916    0.830750
      5          1           0       -1.431702    0.668982   -0.128435
 ---------------------------------------------------------------------
 Rotational constants (GHZ):          84.0716351           3.9069277           3.7814933
 Standard basis: 6-31G(d,p) (6D, 7F)
 There are    55 symmetry adapted cartesian basis functions of A   symmetry.
 There are    55 symmetry adapted basis functions of A   symmetry.
    55 basis functions,    98 primitive gaussians,    55 cartesian basis functions
    12 alpha electrons       12 beta electrons
       nuclear repulsion energy        53.6768877619 Hartrees.
 NAtoms=    5 NActive=    5 NUniq=    5 SFac= 1.00D+00 NAtFMM=   60 NAOKFM=F Big=F
 Integral buffers will be    131072 words long.
 Raffenetti 2 integral format.
 Two-electron integral symmetry is turned on.
 One-electron integrals computed using PRISM.
 NBasis=    55 RedAO= T EigKep=  7.32D-03  NBF=    55
 NBsUse=    55 1.00D-06 EigRej= -1.00D+00 NBFU=    55
 Initial guess from the checkpoint file:  "Z:\Desktop\0620\H2OCO(1).chk"
 B after Tr=     0.000000    0.000000    0.000000
         Rot=    0.999999    0.001194   -0.000049    0.000096 Ang=   0.14 deg.
 Keep R1 ints in memory in canonical form, NReq=2064058.
 Requested convergence on RMS density matrix=1.00D-08 within 128 cycles.
 Requested convergence on MAX density matrix=1.00D-06.
 Requested convergence on             energy=1.00D-06.
 No special actions if energy rises.
 SCF Done:  E(RB3LYP) =  -189.733262041     A.U. after    8 cycles
            NFock=  8  Conv=0.27D-08     -V/T= 2.0084
 Calling FoFJK, ICntrl=      2127 FMM=F ISym2X=0 I1Cent= 0 IOpClX= 0 NMat=1 NMatS=1 NMatT=0.
 ***** Axes restored to original set *****
 -------------------------------------------------------------------
 Center     Atomic                   Forces (Hartrees/Bohr)
 Number     Number              X              Y              Z
 -------------------------------------------------------------------
      1        6          -0.000229484    0.000095841    0.000011400
      2        8           0.000212079   -0.000161999   -0.000004432
      3        8           0.000031677   -0.000157085   -0.000071033
      4        1          -0.000007777   -0.000022601    0.000094852
      5        1          -0.000006495    0.000245844   -0.000030788
 -------------------------------------------------------------------
 Cartesian Forces:  Max     0.000245844 RMS     0.000125151

 GradGradGradGradGradGradGradGradGradGradGradGradGradGradGradGradGradGrad
 Berny optimization.
 Using GEDIIS/GDIIS optimizer.
[...]
 TightC=F SS=  1.41D+00  RLast= 3.56D-02 DXNew= 5.0454D-01 1.0690D-01
 Trust test= 1.90D+00 RLast= 3.56D-02 DXMaxT set to 3.00D-01
 The second derivative matrix:
                          R1        R2        R3        R4        A1
           R1           1.91420
           R2          -0.01319   0.00631
           R3           0.19319  -0.00419   0.62734
           R4           0.26726  -0.00339   0.11535   0.69888
           A1           0.00037  -0.00275   0.00025  -0.00176   0.01526
           A2           0.04707  -0.00047   0.02507   0.03251  -0.00017
           A3          -0.01257   0.00681  -0.00581  -0.00690  -0.00879
           D1          -0.01196   0.00008  -0.00463  -0.00637   0.00017
           D2          -0.00496   0.00036  -0.00189  -0.00306  -0.00038
                          A2        A3        D1        D2
           A2           0.16985
           A3          -0.00140   0.01240
           D1          -0.00071   0.00040   0.00251
           D2          -0.00280   0.00029   0.00130   0.00343
 ITU=  1  1  1  1  1  1  0  0  0  1
     Eigenvalues ---    0.00103   0.00170   0.00420   0.00757   0.02496
     Eigenvalues ---    0.16676   0.54234   0.69621   2.00541
 En-DIIS/RFO-DIIS/Sim-DIIS IScMMF=       -3 using points:    16   15   14   13   12   11   10    9    8    7
 RFO step:  Lambda=-2.47257915D-07.
 DIIS inversion failure, remove point  10.
 DIIS inversion failure, remove point   9.
 DIIS inversion failure, remove point   8.
 DIIS inversion failure, remove point   7.
 DIIS inversion failure, remove point   6.
 DIIS inversion failure, remove point   5.
 RFO-DIIS uses    4 points instead of   10
 DidBck=F Rises=F RFO-DIIS coefs:    1.43560   -0.83192    0.21064    0.18568    0.00000
                  RFO-DIIS coefs:    0.00000    0.00000    0.00000    0.00000    0.00000
 Iteration  1 RMS(Cart)=  0.00353765 RMS(Int)=  0.00000788
 Iteration  2 RMS(Cart)=  0.00000570 RMS(Int)=  0.00000000
 Iteration  3 RMS(Cart)=  0.00000000 RMS(Int)=  0.00000000
 Variable       Old X    -DE/DX   Delta X   Delta X   Delta X     New X
                                 (Linear)    (Quad)   (Total)
    R1        2.14878  -0.00033  -0.00020  -0.00002  -0.00021   2.14857
    R2        4.55855   0.00002   0.00339   0.00114   0.00453   4.56308
    R3        1.82509  -0.00012  -0.00018  -0.00002  -0.00020   1.82489
    R4        1.82544  -0.00016  -0.00026  -0.00001  -0.00028   1.82516
    A1        2.39739   0.00001  -0.00120   0.00149   0.00029   2.39768
    A2        1.80889  -0.00001   0.00006   0.00000   0.00006   1.80895
    A3        2.01724   0.00001  -0.00107   0.00044  -0.00063   2.01661
    D1        0.24217   0.00001   0.00208   0.00097   0.00305   0.24522
    D2        1.58644   0.00002   0.00524  -0.00001   0.00523   1.59167
         Item               Value     Threshold  Converged?
 Maximum Force            0.000325     0.000450     YES
 RMS     Force            0.000128     0.000300     YES
 Maximum Displacement     0.007357     0.001800     NO 
 RMS     Displacement     0.003537     0.001200     NO 
 Predicted change in Energy=-6.707503D-08
 GradGradGradGradGradGradGradGradGradGradGradGradGradGradGradGradGradGrad

                          Input orientation:                          
 ---------------------------------------------------------------------
 Center     Atomic      Atomic             Coordinates (Angstroms)
 Number     Number       Type             X           Y           Z
 ---------------------------------------------------------------------
      1          6           0        0.922588    0.501266    0.051651
      2          8           0        1.702724   -0.323614   -0.008902
      3          8           0       -1.965894   -0.136713   -0.104484
      4          1           0       -2.166153   -0.243328    0.834178
      5          1           0       -1.476640    0.695276   -0.140014
 ---------------------------------------------------------------------
                    Distance matrix (angstroms):
                    1          2          3          4          5
     1  C    0.000000
     2  O    1.136972   0.000000
     3  O    2.962216   3.674619   0.000000
     4  H    3.272169   3.960485   0.965690   0.000000
     5  H    2.414678   3.341209   0.965835   1.518372   0.000000
 Stoichiometry    CH2O2
 Framework group  C1[X(CH2O2)]
 Deg. of freedom     9
 Full point group                 C1      NOp   1
 Largest Abelian subgroup         C1      NOp   1
 Largest concise Abelian subgroup C1      NOp   1
                         Standard orientation:                         
 ---------------------------------------------------------------------
 Center     Atomic      Atomic             Coordinates (Angstroms)
 Number     Number       Type             X           Y           Z
 ---------------------------------------------------------------------
      1          6           0        0.931717    0.510198    0.046201
      2          8           0        1.711458   -0.314671   -0.019377
      3          8           0       -1.957402   -0.126635   -0.102661
      4          1           0       -2.154686   -0.236085    0.836305
      5          1           0       -1.468064    0.705346   -0.137200
 ---------------------------------------------------------------------
 Rotational constants (GHZ):          78.8904489           4.0102871           3.8674180
 Standard basis: 6-31G(d,p) (6D, 7F)
 There are    55 symmetry adapted cartesian basis functions of A   symmetry.
 There are    55 symmetry adapted basis functions of A   symmetry.
    55 basis functions,    98 primitive gaussians,    55 cartesian basis functions
    12 alpha electrons       12 beta electrons
       nuclear repulsion energy        53.8685561519 Hartrees.
 NAtoms=    5 NActive=    5 NUniq=    5 SFac= 1.00D+00 NAtFMM=   60 NAOKFM=F Big=F
 Integral buffers will be    131072 words long.
 Raffenetti 2 integral format.
 Two-electron integral symmetry is turned on.
 One-electron integrals computed using PRISM.
 NBasis=    55 RedAO= T EigKep=  7.38D-03  NBF=    55
 NBsUse=    55 1.00D-06 EigRej= -1.00D+00 NBFU=    55
 Initial guess from the checkpoint file:  "Z:\Desktop\0620\H2OCO(1).chk"
 B after Tr=     0.000000    0.000000    0.000000
         Rot=    0.999999    0.001206    0.000053    0.000012 Ang=   0.14 deg.
 Keep R1 ints in memory in canonical form, NReq=2064058.
 Requested convergence on RMS density matrix=1.00D-08 within 128 cycles.
 Requested convergence on MAX density matrix=1.00D-06.
 Requested convergence on             energy=1.00D-06.
 No special actions if energy rises.
 SCF Done:  E(RB3LYP) =  -189.733271128     A.U. after    8 cycles
            NFock=  8  Conv=0.23D-08     -V/T= 2.0084
 Calling FoFJK, ICntrl=      2127 FMM=F ISym2X=0 I1Cent= 0 IOpClX= 0 NMat=1 NMatS=1 NMatT=0.
 ***** Axes restored to original set *****
 -------------------------------------------------------------------
 Center     Atomic                   Forces (Hartrees/Bohr)
 Number     Number              X              Y              Z
 -------------------------------------------------------------------
      1        6           0.000034227   -0.000040280   -0.000001942
      2        8          -0.000037298    0.000039914    0.000002372
      3        8           0.000011174    0.000017758    0.000016792
      4        1           0.000005042    0.000005239   -0.000018686
      5        1          -0.000013145   -0.000022632    0.000001463
 -------------------------------------------------------------------
 Cartesian Forces:  Max     0.000040280 RMS     0.000022508

 GradGradGradGradGradGradGradGradGradGradGradGradGradGradGradGradGradGrad
 Berny optimization.
 Using GEDIIS/GDIIS optimizer.
 FormGI is forming the generalized inverse of G from B-inverse, IUseBI=4.
 Internal  Forces:  Max     0.000054580 RMS     0.000021625
 Search for a local minimum.
 Step number  17 out of a maximum of   20
 All quantities printed in internal units (Hartrees-Bohrs-Radians)
 Mixed Optimization -- En-DIIS/RFO-DIIS
 Swapping is turned off.
 Update second derivatives using D2CorX and points    8    9   10   11   12
                                                     13   14   15   16   17
 DE= -1.99D-07 DEPred=-6.71D-08 R= 2.97D+00
 Trust test= 2.97D+00 RLast= 7.61D-03 DXMaxT set to 3.00D-01
 The second derivative matrix:
                          R1        R2        R3        R4        A1
           R1           1.48388
           R2           0.00250   0.00621
           R3           0.03313   0.00162   0.56781
           R4           0.04942   0.00458   0.03432   0.58860
           A1          -0.00656  -0.00216  -0.00233  -0.00527   0.01513
           A2           0.02414   0.00057   0.01653   0.02092  -0.00038
           A3           0.00787   0.00615   0.00178   0.00349  -0.00792
           D1           0.00146  -0.00045   0.00036   0.00042   0.00035
           D2           0.01051   0.00038   0.00385   0.00479   0.00029
                          A2        A3        D1        D2
           A2           0.16873
           A3          -0.00025   0.01084
           D1          -0.00002  -0.00027   0.00210
           D2          -0.00167  -0.00006   0.00073   0.00385
 ITU=  0  1  1  1  1  1  1  0  0  0
     Eigenvalues ---    0.00105   0.00191   0.00394   0.00800   0.02288
     Eigenvalues ---    0.16685   0.54234   0.61157   1.48860
 En-DIIS/RFO-DIIS/Sim-DIIS IScMMF=       -3 using points:    17   16   15   14   13   12   11   10    9    8
 RFO step:  Lambda=-3.93984028D-09.
 DIIS inversion failure, remove point  10.
 DIIS inversion failure, remove point   9.
 DIIS inversion failure, remove point   8.
 DIIS inversion failure, remove point   7.
 DIIS inversion failure, remove point   6.
 RFO-DIIS uses    5 points instead of   10
 DidBck=F Rises=F RFO-DIIS coefs:    0.92108    0.21584   -0.38069    0.26201   -0.01824
                  RFO-DIIS coefs:    0.00000    0.00000    0.00000    0.00000    0.00000
 Iteration  1 RMS(Cart)=  0.00041976 RMS(Int)=  0.00000022
 Iteration  2 RMS(Cart)=  0.00000020 RMS(Int)=  0.00000000
 Variable       Old X    -DE/DX   Delta X   Delta X   Delta X     New X
                                 (Linear)    (Quad)   (Total)
    R1        2.14857  -0.00005  -0.00004   0.00000  -0.00004   2.14853
    R2        4.56308   0.00000   0.00024  -0.00015   0.00009   4.56317
    R3        1.82489  -0.00002  -0.00003   0.00000  -0.00004   1.82485
    R4        1.82516  -0.00003  -0.00005   0.00000  -0.00005   1.82511
    A1        2.39768   0.00000  -0.00049   0.00018  -0.00032   2.39737
    A2        1.80895   0.00000  -0.00001  -0.00001  -0.00002   1.80893
    A3        2.01661   0.00000  -0.00025  -0.00018  -0.00043   2.01618
    D1        0.24522   0.00000   0.00109   0.00006   0.00115   0.24637
    D2        1.59167   0.00000  -0.00019   0.00006  -0.00013   1.59154
         Item               Value     Threshold  Converged?
 Maximum Force            0.000055     0.000450     YES
 RMS     Force            0.000022     0.000300     YES
 Maximum Displacement     0.000635     0.001800     YES
 RMS     Displacement     0.000420     0.001200     YES
 Predicted change in Energy=-3.219454D-09
 Optimization completed.
    -- Stationary point found.
                           ----------------------------
                           !   Optimized Parameters   !
                           ! (Angstroms and Degrees)  !
 --------------------------                            --------------------------
 ! Name  Definition              Value          Derivative Info.                !
 --------------------------------------------------------------------------------
 ! R1    R(1,2)                  1.137          -DE/DX =   -0.0001              !
 ! R2    R(1,5)                  2.4147         -DE/DX =    0.0                 !
 ! R3    R(3,4)                  0.9657         -DE/DX =    0.0                 !
 ! R4    R(3,5)                  0.9658         -DE/DX =    0.0                 !
 ! A1    A(2,1,5)              137.377          -DE/DX =    0.0                 !
 ! A2    A(4,3,5)              103.6451         -DE/DX =    0.0                 !
 ! A3    A(1,5,3)              115.543          -DE/DX =    0.0                 !
 ! D1    D(2,1,5,3)             14.0501         -DE/DX =    0.0                 !
 ! D2    D(4,3,5,1)             91.1961         -DE/DX =    0.0                 !
 --------------------------------------------------------------------------------
 GradGradGradGradGradGradGradGradGradGradGradGradGradGradGradGradGradGrad

                          Input orientation:                          
 ---------------------------------------------------------------------
 Center     Atomic      Atomic             Coordinates (Angstroms)
 Number     Number       Type             X           Y           Z
 ---------------------------------------------------------------------
      1          6           0        0.922588    0.501266    0.051651
      2          8           0        1.702724   -0.323614   -0.008902
      3          8           0       -1.965894   -0.136713   -0.104484
      4          1           0       -2.166153   -0.243328    0.834178
      5          1           0       -1.476640    0.695276   -0.140014
 ---------------------------------------------------------------------
                    Distance matrix (angstroms):
                    1          2          3          4          5
     1  C    0.000000
     2  O    1.136972   0.000000
     3  O    2.962216   3.674619   0.000000
     4  H    3.272169   3.960485   0.965690   0.000000
     5  H    2.414678   3.341209   0.965835   1.518372   0.000000
 Stoichiometry    CH2O2
 Framework group  C1[X(CH2O2)]
 Deg. of freedom     9
 Full point group                 C1      NOp   1
 Largest Abelian subgroup         C1      NOp   1
 Largest concise Abelian subgroup C1      NOp   1
                         Standard orientation:                         
 ---------------------------------------------------------------------
 Center     Atomic      Atomic             Coordinates (Angstroms)
 Number     Number       Type             X           Y           Z
 ---------------------------------------------------------------------
      1          6           0        0.931717    0.510198    0.046201
      2          8           0        1.711458   -0.314671   -0.019377
      3          8           0       -1.957402   -0.126635   -0.102661
      4          1           0       -2.154686   -0.236085    0.836305
      5          1           0       -1.468064    0.705346   -0.137200
 ---------------------------------------------------------------------
 Rotational constants (GHZ):          78.8904489           4.0102871           3.8674180

 **********************************************************************

            Population analysis using the SCF Density.

 **********************************************************************

 Orbital symmetries:
       Occupied  (A) (A) (A) (A) (A) (A) (A) (A) (A) (A) (A) (A)
       Virtual   (A) (A) (A) (A) (A) (A) (A) (A) (A) (A) (A) (A)
                 (A) (A) (A) (A) (A) (A) (A) (A) (A) (A) (A) (A)
                 (A) (A) (A) (A) (A) (A) (A) (A) (A) (A) (A) (A)
                 (A) (A) (A) (A) (A) (A) (A)
 The electronic state is 1-A.
 Alpha  occ. eigenvalues --  -19.26126 -19.14040 -10.30921  -1.16132  -0.99890
 Alpha  occ. eigenvalues --   -0.57310  -0.51690  -0.47085  -0.46987  -0.38680
 Alpha  occ. eigenvalues --   -0.36770  -0.29354
 Alpha virt. eigenvalues --   -0.02735  -0.02584   0.08085   0.15792   0.27711
 Alpha virt. eigenvalues --    0.50344   0.51306   0.61245   0.74561   0.76673
 Alpha virt. eigenvalues --    0.79656   0.81825   0.88492   0.89703   0.92462
 Alpha virt. eigenvalues --    1.02341   1.03101   1.17927   1.40902   1.47538
 Alpha virt. eigenvalues --    1.47683   1.53612   1.53857   1.55022   1.56560
 Alpha virt. eigenvalues --    1.65549   1.93977   1.94146   2.24188   2.27008
 Alpha virt. eigenvalues --    2.39196   2.45723   2.59597   2.60335   2.65038
 Alpha virt. eigenvalues --    2.67295   2.95778   3.02814   3.31990   3.53526
 Alpha virt. eigenvalues --    3.64788   3.78889   3.93504
          Condensed to atoms (all electrons):
               1          2          3          4          5
     1  C    5.221223   0.583586   0.005673   0.001133   0.016511
     2  O    0.583586   7.593687  -0.000557   0.000049  -0.000587
     3  O    0.005673  -0.000557   8.042747   0.283221   0.278520
     4  H    0.001133   0.000049   0.283221   0.438588  -0.027638
     5  H    0.016511  -0.000587   0.278520  -0.027638   0.423935
 Mulliken charges:
               1
     1  C    0.171874
     2  O   -0.176177
     3  O   -0.609603
     4  H    0.304647
     5  H    0.309259
 Sum of Mulliken charges =   0.00000
 Mulliken charges with hydrogens summed into heavy atoms:
               1
     1  C    0.171874
     2  O   -0.176177
     3  O    0.004303
 Electronic spatial extent (au):  <R**2>=            287.6850
 Charge=              0.0000 electrons
 Dipole moment (field-independent basis, Debye):
    X=              0.4980    Y=              1.1024    Z=              1.5131  Tot=              1.9372
 Quadrupole moment (field-independent basis, Debye-Ang):
   XX=            -18.9396   YY=            -16.8293   ZZ=            -15.2200
   XY=             -0.5892   XZ=             -3.5577   YZ=             -0.8000
 Traceless Quadrupole moment (field-independent basis, Debye-Ang):
   XX=             -1.9433   YY=              0.1670   ZZ=              1.7763
   XY=             -0.5892   XZ=             -3.5577   YZ=             -0.8000
 Octapole moment (field-independent basis, Debye-Ang**2):
  XXX=              1.6512  YYY=             -2.6533  ZZZ=              1.3549  XYY=             -1.9222
  XXY=              2.3387  XXZ=              8.4147  XZZ=             -2.7208  YZZ=             -0.9504
  YYZ=              0.0046  XYZ=              1.2846
 Hexadecapole moment (field-independent basis, Debye-Ang**3):
 XXXX=           -292.1148 YYYY=            -28.1876 ZZZZ=            -13.7730 XXXY=              0.3607
 XXXZ=            -19.7056 YYYX=             -3.8121 YYYZ=             -0.6574 ZZZX=             -3.7957
 ZZZY=             -0.7231 XXYY=            -48.2997 XXZZ=            -42.3042 YYZZ=             -7.0206
 XXYZ=             -2.7933 YYXZ=             -0.6513 ZZXY=             -0.2370
 N-N= 5.386855615188D+01 E-N=-5.539509520766D+02  KE= 1.881458093173D+02
 Unable to Open any file for archive entry.
 1|1|UNPC-PCHID016|FOpt|RB3LYP|6-31G(d,p)|C1H2O2|S202036C|20-Jun-2023|0
 ||# opt b3lyp/6-31g(d,p) geom=connectivity||Title Card Required||0,1|C
 ,0.9225883463,0.5012664169,0.051651369|O,1.7027238695,-0.3236137937,-0
 .0089022133|O,-1.9658936948,-0.1367127623,-0.1044844747|H,-2.166152941
 5,-0.2433275734,0.8341782006|H,-1.4766395796,0.6952757125,-0.140013881
 6||Version=EM64W-G16RevC.01|State=1-A|HF=-189.7332711|RMSD=2.338e-009|
 RMSF=2.251e-005|Dipole=0.1939098,0.4355936,0.5945698|Quadrupole=-1.427
 6757,0.120303,1.3073727,-0.444674,-2.6523619,-0.5931181|PG=C01 [X(C1H2
 O2)]||@
 The archive entry for this job was punched.


 SLITHERY-DITHERY
 FRIEDRICH A. KEKULE
 DREAMT ON A BUS OF THINGS
 FREUD WOULD THINK KEEN.
 MOST OF THE TIME THEY WERE
 HERPETOLOGICAL
 BITING THEIR TAILS IN THE
 SHAPE OF BENZENE.
 Job cpu time:       0 days  0 hours  2 minutes 51.0 seconds.
 Elapsed time:       0 days  0 hours  2 minutes 29.0 seconds.
 File lengths (MBytes):  RWF=      6 Int=      0 D2E=      0 Chk=      1 Scr=      1
 Normal termination of Gaussian 16 at Tue Jun 20 15:53:27 2023.
