 Entering Link 1 = C:\G16W\l1.exe PID=     17476.
  
 Copyright (c) 1988-2019, Gaussian, Inc.  All Rights Reserved.
  
 This is part of the Gaussian(R) 16 program.  It is based on
 the Gaussian(R) 09 system (copyright 2009, Gaussian, Inc.),
 the Gaussian(R) 03 system (copyright 2003, Gaussian, Inc.),
 the Gaussian(R) 98 system (copyright 1998, Gaussian, Inc.),
 the Gaussian(R) 94 system (copyright 1995, Gaussian, Inc.),
 the Gaussian 92(TM) system (copyright 1992, Gaussian, Inc.),
 the Gaussian 90(TM) system (copyright 1990, Gaussian, Inc.),
 the Gaussian 88(TM) system (copyright 1988, Gaussian, Inc.),
 the Gaussian 86(TM) system (copyright 1986, Carnegie Mellon
 University), and the Gaussian 82(TM) system (copyright 1983,
 Carnegie Mellon University). Gaussian is a federally registered
 trademark of Gaussian, Inc.
  
 This software contains proprietary and confidential information,
 including trade secrets, belonging to Gaussian, Inc.
  
 This software is provided under written license and may be
 used, copied, transmitted, or stored only in accord with that
 written license.
  
 The following legend is applicable only to US Government
 contracts under FAR:
  
                    RESTRICTED RIGHTS LEGEND
  
 Use, reproduction and disclosure by the US Government is
 subject to restrictions as set forth in subparagraphs (a)
 and (c) of the Commercial Computer Software - Restricted
 Rights clause in FAR 52.227-19.
  
 Gaussian, Inc.
 340 Quinnipiac St., Bldg. 40, Wallingford CT 06492
  
  
 ---------------------------------------------------------------
 Warning -- This program may not be used in any manner that
 competes with the business of Gaussian, Inc. or will provide
 assistance to any competitor of Gaussian, Inc.  The licensee
 of this program is prohibited from giving any competitor of
 Gaussian, Inc. access to this program.  By using this program,
 the user acknowledges that Gaussian, Inc. is engaged in the
 business of creating and licensing software in the field of
 computational chemistry and represents and warrants to the
 licensee that it is not a competitor of Gaussian, Inc. and that
 it will not use this program in any manner prohibited above.
 ---------------------------------------------------------------
  

 Cite this work as:
 Gaussian 16, Revision C.01,
 M. J. Frisch, G. W. Trucks, H. B. Schlegel, G. E. Scuseria, 
 M. A. Robb, J. R. Cheeseman, G. Scalmani, V. Barone, 
 G. A. Petersson, H. Nakatsuji, X. Li, M. Caricato, A. V. Marenich, 
 J. Bloino, B. G. Janesko, R. Gomperts, B. Mennucci, H. P. Hratchian, 
 J. V. Ortiz, A. F. Izmaylov, J. L. Sonnenberg, D. Williams-Young, 
 F. Ding, F. Lipparini, F. Egidi, J. Goings, B. Peng, A. Petrone, 
 T. Henderson, D. Ranasinghe, V. G. Zakrzewski, J. Gao, N. Rega, 
 G. Zheng, W. Liang, M. Hada, M. Ehara, K. Toyota, R. Fukuda, 
 J. Hasegawa, M. Ishida, T. Nakajima, Y. Honda, O. Kitao, H. Nakai, 
 T. Vreven, K. Throssell, J. A. Montgomery, Jr., J. E. Peralta, 
 F. Ogliaro, M. J. Bearpark, J. J. Heyd, E. N. Brothers, K. N. Kudin, 
 V. N. Staroverov, T. A. Keith, R. Kobayashi, J. Normand, 
 K. Raghavachari, A. P. Rendell, J. C. Burant, S. S. Iyengar, 
 J. Tomasi, M. Cossi, J. M. Millam, M. Klene, C. Adamo, R. Cammi, 
 J. W. Ochterski, R. L. Martin, K. Morokuma, O. Farkas, 
 J. B. Foresman, and D. J. Fox, Gaussian, Inc., Wallingford CT, 2019.
 
 ******************************************
 Gaussian 16:  EM64W-G16RevC.01 30-May-2019
                12-Jun-2023 
 ******************************************
 %chk=C:\Calculation\transition states\optCO1H1.chk
 ----------------------------------------
 # opt freq b3lyp/6-31g geom=connectivity
 ----------------------------------------
 1/18=20,19=15,26=3,38=1,57=2/1,3;
 2/9=110,12=2,17=6,18=5,40=1/2;
 3/5=1,6=6,11=2,25=1,30=1,71=1,74=-5/1,2,3;
 4//1;
 5/5=2,38=5/2;
 6/7=2,8=2,9=2,10=2,28=1/1;
 7//1,2,3,16;
 1/18=20,19=15,26=3/3(2);
 2/9=110/2;
 99//99;
 2/9=110/2;
 3/5=1,6=6,11=2,25=1,30=1,71=1,74=-5/1,2,3;
 4/5=5,16=3,69=1/1;
 5/5=2,38=5/2;
 7//1,2,3,16;
 1/18=20,19=15,26=3/3(-5);
 2/9=110/2;
 6/7=2,8=2,9=2,10=2,19=2,28=1/1;
 99/9=1/99;
 -------------------
 Title Card Required
 -------------------
 Symbolic Z-matrix:
 Charge =  0 Multiplicity = 2
 C                    -2.11959  -0.39863   0. 
 O                    -1.16287  -0.17084   0. 
 H                    -0.09112   0.80866   0. 
 

 GradGradGradGradGradGradGradGradGradGradGradGradGradGradGradGradGradGrad
 Berny optimization.
 Initialization pass.
                           ----------------------------
                           !    Initial Parameters    !
                           ! (Angstroms and Degrees)  !
 --------------------------                            --------------------------
 ! Name  Definition              Value          Derivative Info.                !
 --------------------------------------------------------------------------------
 ! R1    R(1,2)                  0.9835         estimate D2E/DX2                !
 ! R2    R(2,3)                  1.4519         estimate D2E/DX2                !
 ! A1    A(1,2,3)              150.9676         estimate D2E/DX2                !
 --------------------------------------------------------------------------------
 Trust Radius=3.00D-01 FncErr=1.00D-07 GrdErr=1.00D-06 EigMax=2.50D+02 EigMin=1.00D-04
 Number of steps in this run=     20 maximum allowed number of steps=    100.
 GradGradGradGradGradGradGradGradGradGradGradGradGradGradGradGradGradGrad

                          Input orientation:                          
 ---------------------------------------------------------------------
 Center     Atomic      Atomic             Coordinates (Angstroms)
 Number     Number       Type             X           Y           Z
 ---------------------------------------------------------------------
      1          6           0       -2.119588   -0.398633    0.000000
      2          8           0       -1.162868   -0.170843    0.000000
      3          1           0       -0.091116    0.808656    0.000000
 ---------------------------------------------------------------------
                    Distance matrix (angstroms):
                    1          2          3
     1  C    0.000000
     2  O    0.983464   0.000000
     3  H    2.360560   1.451919   0.000000
 Stoichiometry    CHO(2)
 Framework group  CS[SG(CHO)]
 Deg. of freedom     3
 Full point group                 CS      NOp   2
 Largest Abelian subgroup         CS      NOp   2
 Largest concise Abelian subgroup C1      NOp   1
                         Standard orientation:                         
 ---------------------------------------------------------------------
 Center     Atomic      Atomic             Coordinates (Angstroms)
 Number     Number       Type             X           Y           Z
 ---------------------------------------------------------------------
      1          6           0        0.046975   -0.674710    0.000000
      2          8           0        0.046975    0.308754    0.000000
      3          1           0       -0.657648    1.578232    0.000000
 ---------------------------------------------------------------------
 Rotational constants (GHZ):        1508.6523447          52.8573697          51.0681387
 Standard basis: 6-31G (6D, 7F)
 There are    16 symmetry adapted cartesian basis functions of A'  symmetry.
 There are     4 symmetry adapted cartesian basis functions of A"  symmetry.
 There are    16 symmetry adapted basis functions of A'  symmetry.
 There are     4 symmetry adapted basis functions of A"  symmetry.
    20 basis functions,    48 primitive gaussians,    20 cartesian basis functions
     8 alpha electrons        7 beta electrons
       nuclear repulsion energy        30.0883772398 Hartrees.
 NAtoms=    3 NActive=    3 NUniq=    3 SFac= 1.00D+00 NAtFMM=   60 NAOKFM=F Big=F
 Integral buffers will be    131072 words long.
 Raffenetti 2 integral format.
 Two-electron integral symmetry is turned on.
 One-electron integrals computed using PRISM.
 NBasis=    20 RedAO= T EigKep=  1.47D-02  NBF=    16     4
 NBsUse=    20 1.00D-06 EigRej= -1.00D+00 NBFU=    16     4
 ExpMin= 1.61D-01 ExpMax= 5.48D+03 ExpMxC= 8.25D+02 IAcc=3 IRadAn=         5 AccDes= 0.00D+00
 Harris functional with IExCor=  402 and IRadAn=       5 diagonalized for initial guess.
 HarFok:  IExCor=  402 AccDes= 0.00D+00 IRadAn=         5 IDoV= 1 UseB2=F ITyADJ=14
 ICtDFT=  3500011 ScaDFX=  1.000000  1.000000  1.000000  1.000000
 FoFCou: FMM=F IPFlag=           0 FMFlag=      100000 FMFlg1=           0
         NFxFlg=           0 DoJE=T BraDBF=F KetDBF=T FulRan=T
         wScrn=  0.000000 ICntrl=       500 IOpCl=  0 I1Cent=   200000004 NGrid=           0
         NMat0=    1 NMatS0=      1 NMatT0=    0 NMatD0=    1 NMtDS0=    0 NMtDT0=    0
 Petite list used in FoFCou.
 Initial guess orbital symmetries:
 Alpha Orbitals:
       Occupied  (A') (A') (A') (A') (A') (A") (A') (A')
       Virtual   (A") (A') (A') (A") (A') (A') (A') (A') (A") (A')
                 (A') (A')
 Beta  Orbitals:
       Occupied  (A') (A') (A') (A') (A') (A") (A')
       Virtual   (A') (A") (A') (A') (A") (A') (A') (A') (A') (A")
                 (A') (A') (A')
 The electronic state of the initial guess is 2-A'.
 Initial guess <Sx>= 0.0000 <Sy>= 0.0000 <Sz>= 0.5000 <S**2>= 0.7500 S= 0.5000
 Keep R1 and R2 ints in memory in symmetry-blocked form, NReq=889709.
 Requested convergence on RMS density matrix=1.00D-08 within 128 cycles.
 Requested convergence on MAX density matrix=1.00D-06.
 Requested convergence on             energy=1.00D-06.
 No special actions if energy rises.
 Integral accuracy reduced to 1.0D-05 until final iterations.
 Initial convergence to 1.0D-05 achieved.  Increase integral accuracy.
 SCF Done:  E(UB3LYP) =  -113.629403977     A.U. after   13 cycles
            NFock= 13  Conv=0.39D-08     -V/T= 1.9933
 <Sx>= 0.0000 <Sy>= 0.0000 <Sz>= 0.5000 <S**2>= 0.7510 S= 0.5005
 <L.S>= 0.000000000000E+00
 Annihilation of the first spin contaminant:
 S**2 before annihilation     0.7510,   after     0.7500

 **********************************************************************

            Population analysis using the SCF Density.

 **********************************************************************

 Orbital symmetries:
 Alpha Orbitals:
       Occupied  (A') (A') (A') (A') (A') (A") (A') (A')
       Virtual   (A") (A') (A') (A") (A') (A') (A') (A') (A") (A')
                 (A') (A')
 Beta  Orbitals:
       Occupied  (A') (A') (A') (A') (A") (A') (A')
       Virtual   (A') (A") (A') (A') (A") (A') (A') (A') (A') (A")
                 (A') (A') (A')
 The electronic state is 2-A'.
 Alpha  occ. eigenvalues --  -19.28276 -10.30258  -1.31988  -0.65056  -0.56831
 Alpha  occ. eigenvalues --   -0.56601  -0.36945  -0.21142
 Alpha virt. eigenvalues --    0.01623   0.01922   0.27374   0.49034   0.49160
 Alpha virt. eigenvalues --    0.58312   0.66151   0.86798   0.89944   1.13583
 Alpha virt. eigenvalues --    1.22276   1.60401
  Beta  occ. eigenvalues --  -19.27847 -10.30130  -1.31579  -0.62227  -0.56188
  Beta  occ. eigenvalues --   -0.56162  -0.36520
  Beta virt. eigenvalues --   -0.02601   0.01873   0.03814   0.27654   0.49050
  Beta virt. eigenvalues --    0.49639   0.58554   0.77213   0.87318   0.90164
  Beta virt. eigenvalues --    1.18106   1.23743   1.60706
          Condensed to atoms (all electrons):
               1          2          3
     1  C    5.443669   0.503365  -0.011153
     2  O    0.503365   7.697942  -0.193540
     3  H   -0.011153  -0.193540   1.261046
          Atomic-Atomic Spin Densities.
               1          2          3
     1  C    0.066424  -0.010033  -0.011168
     2  O   -0.010033   0.305566  -0.273741
     3  H   -0.011168  -0.273741   1.217894
 Mulliken charges and spin densities:
               1          2
     1  C    0.064120   0.045223
     2  O   -0.007767   0.021793
     3  H   -0.056353   0.932984
 Sum of Mulliken charges =   0.00000   1.00000
 Mulliken charges and spin densities with hydrogens summed into heavy atoms:
               1          2
     1  C    0.064120   0.045223
     2  O   -0.064120   0.954777
 Electronic spatial extent (au):  <R**2>=             50.7028
 Charge=              0.0000 electrons
 Dipole moment (field-independent basis, Debye):
    X=              0.3308    Y=             -0.2390    Z=              0.0000  Tot=              0.4081
 Quadrupole moment (field-independent basis, Debye-Ang):
   XX=            -11.1651   YY=            -15.3286   ZZ=            -10.7311
   XY=              0.8079   XZ=              0.0000   YZ=              0.0000
 Traceless Quadrupole moment (field-independent basis, Debye-Ang):
   XX=              1.2432   YY=             -2.9204   ZZ=              1.6772
   XY=              0.8079   XZ=              0.0000   YZ=              0.0000
 Octapole moment (field-independent basis, Debye-Ang**2):
  XXX=              1.9332  YYY=             -0.9132  ZZZ=              0.0000  XYY=              2.0224
  XXY=             -0.9108  XXZ=              0.0000  XZZ=              0.5494  YZZ=             -0.2435
  YYZ=              0.0000  XYZ=              0.0000
 Hexadecapole moment (field-independent basis, Debye-Ang**3):
 XXXX=            -13.2407 YYYY=            -62.3035 ZZZZ=             -8.6416 XXXY=              5.7550
 XXXZ=              0.0000 YYYX=              8.1356 YYYZ=              0.0000 ZZZX=              0.0000
 ZZZY=              0.0000 XXYY=            -12.1571 XXZZ=             -3.6115 YYZZ=            -10.1760
 XXYZ=              0.0000 YYXZ=              0.0000 ZZXY=              1.7450
 N-N= 3.008837723982D+01 E-N=-3.271679340858D+02  KE= 1.143923346750D+02
 Symmetry A'   KE= 1.101316187555D+02
 Symmetry A"   KE= 4.260715919547D+00
 Symmetry A'   SP= 1.000000000000D+00
 Symmetry A"   SP= 1.225168783699D-15
                          Isotropic Fermi Contact Couplings
        Atom                 a.u.       MegaHertz       Gauss      10(-4) cm-1
     1  C(13)              0.01138      12.79858       4.56685       4.26915
     2  O(17)              0.42695    -258.81231     -92.35067     -86.33049
     3  H(1)               0.28020    1252.47252     446.91334     417.77986
 --------------------------------------------------------
       Center         ----  Spin Dipole Couplings  ----
                      3XX-RR        3YY-RR        3ZZ-RR
 --------------------------------------------------------
     1   Atom        0.049411      0.023099     -0.072510
     2   Atom       -0.202666      0.352059     -0.149393
     3   Atom        0.002559     -0.017079      0.014520
 --------------------------------------------------------
                        XY            XZ            YZ
 --------------------------------------------------------
     1   Atom        0.081973      0.000000      0.000000
     2   Atom        0.012164      0.000000      0.000000
     3   Atom        0.019098      0.000000      0.000000
 --------------------------------------------------------


 ---------------------------------------------------------------------------------
              Anisotropic Spin Dipole Couplings in Principal Axis System
 ---------------------------------------------------------------------------------

       Atom             a.u.   MegaHertz   Gauss  10(-4) cm-1        Axes

              Baa    -0.0725    -9.730    -3.472    -3.246  0.0000  0.0000  1.0000
     1 C(13)  Bbb    -0.0468    -6.276    -2.239    -2.093 -0.6487  0.7611  0.0000
              Bcc     0.1193    16.006     5.711     5.339  0.7611  0.6487  0.0000
 
              Baa    -0.2029    14.684     5.240     4.898  0.9998 -0.0219  0.0000
     2 O(17)  Bbb    -0.1494    10.810     3.857     3.606  0.0000  0.0000  1.0000
              Bcc     0.3523   -25.494    -9.097    -8.504  0.0219  0.9998  0.0000
 
              Baa    -0.0287   -15.331    -5.471    -5.114 -0.5209  0.8536  0.0000
     3 H(1)   Bbb     0.0142     7.584     2.706     2.530  0.8536  0.5209  0.0000
              Bcc     0.0145     7.747     2.764     2.584  0.0000  0.0000  1.0000
 

 ---------------------------------------------------------------------------------

 Calling FoFJK, ICntrl=      2127 FMM=F ISym2X=1 I1Cent= 0 IOpClX= 1 NMat=1 NMatS=1 NMatT=0.
 ***** Axes restored to original set *****
 -------------------------------------------------------------------
 Center     Atomic                   Forces (Hartrees/Bohr)
 Number     Number              X              Y              Z
 -------------------------------------------------------------------
      1        6          -0.678450874   -0.155525607    0.000000000
      2        8           0.636821412    0.112113981    0.000000000
      3        1           0.041629462    0.043411627    0.000000000
 -------------------------------------------------------------------
 Cartesian Forces:  Max     0.678450874 RMS     0.317317304

 GradGradGradGradGradGradGradGradGradGradGradGradGradGradGradGradGradGrad
 Berny optimization.
 FormGI is forming the generalized inverse of G from B-inverse, IUseBI=4.
 Internal  Forces:  Max     0.696024174 RMS     0.403389648
 Search for a local minimum.
 Step number   1 out of a maximum of   20
 All quantities printed in internal units (Hartrees-Bohrs-Radians)
 Mixed Optimization -- RFO/linear search
 Second derivative matrix not updated -- first step.
 The second derivative matrix:
                          R1        R2        A1
           R1           3.74719
           R2           0.00000   0.12674
           A1           0.00000   0.00000   0.16000
 ITU=  0
     Eigenvalues ---    0.12674   0.16000   3.74719
 RFO step:  Lambda=-1.38638869D-01 EMin= 1.26739705D-01
 Linear search not attempted -- first point.
 Iteration  1 RMS(Cart)=  0.14737043 RMS(Int)=  0.01506946
 Iteration  2 RMS(Cart)=  0.01174057 RMS(Int)=  0.00000419
 Iteration  3 RMS(Cart)=  0.00000382 RMS(Int)=  0.00000000
 Iteration  4 RMS(Cart)=  0.00000000 RMS(Int)=  0.00000000
 ClnCor:  largest displacement from symmetrization is 5.05D-16 for atom     3.
 Variable       Old X    -DE/DX   Delta X   Delta X   Delta X     New X
                                 (Linear)    (Quad)   (Total)
    R1        1.85848   0.69602   0.00000   0.17912   0.17912   2.03760
    R2        2.74373   0.06002   0.00000   0.22615   0.22615   2.96988
    A1        2.63488  -0.01087   0.00000  -0.03639  -0.03639   2.59849
         Item               Value     Threshold  Converged?
 Maximum Force            0.696024     0.000450     NO 
 RMS     Force            0.403390     0.000300     NO 
 Maximum Displacement     0.168573     0.001800     NO 
 RMS     Displacement     0.157571     0.001200     NO 
 Predicted change in Energy=-7.518052D-02
 GradGradGradGradGradGradGradGradGradGradGradGradGradGradGradGradGradGrad

                          Input orientation:                          
 ---------------------------------------------------------------------
 Center     Atomic      Atomic             Coordinates (Angstroms)
 Number     Number       Type             X           Y           Z
 ---------------------------------------------------------------------
      1          6           0       -2.208793   -0.430460    0.000000
      2          8           0       -1.154661   -0.203679    0.000000
      3          1           0       -0.010118    0.873319    0.000000
 ---------------------------------------------------------------------
                    Distance matrix (angstroms):
                    1          2          3
     1  C    0.000000
     2  O    1.078249   0.000000
     3  H    2.556171   1.571594   0.000000
 Stoichiometry    CHO(2)
 Framework group  CS[SG(CHO)]
 Deg. of freedom     3
 Full point group                 CS      NOp   2
 Largest Abelian subgroup         CS      NOp   2
 Largest concise Abelian subgroup C1      NOp   1
                         Standard orientation:                         
 ---------------------------------------------------------------------
 Center     Atomic      Atomic             Coordinates (Angstroms)
 Number     Number       Type             X           Y           Z
 ---------------------------------------------------------------------
      1          6           0        0.054146   -0.736647    0.000000
      2          8           0        0.054146    0.341602    0.000000
      3          1           0       -0.758039    1.687062    0.000000
 ---------------------------------------------------------------------
 Rotational constants (GHZ):        1120.4551305          44.5638159          42.8591795
 Standard basis: 6-31G (6D, 7F)
 There are    16 symmetry adapted cartesian basis functions of A'  symmetry.
 There are     4 symmetry adapted cartesian basis functions of A"  symmetry.
 There are    16 symmetry adapted basis functions of A'  symmetry.
 There are     4 symmetry adapted basis functions of A"  symmetry.
    20 basis functions,    48 primitive gaussians,    20 cartesian basis functions
     8 alpha electrons        7 beta electrons
       nuclear repulsion energy        27.4929985971 Hartrees.
 NAtoms=    3 NActive=    3 NUniq=    3 SFac= 1.00D+00 NAtFMM=   60 NAOKFM=F Big=F
 Integral buffers will be    131072 words long.
 Raffenetti 2 integral format.
 Two-electron integral symmetry is turned on.
 One-electron integrals computed using PRISM.
 NBasis=    20 RedAO= T EigKep=  1.86D-02  NBF=    16     4
 NBsUse=    20 1.00D-06 EigRej= -1.00D+00 NBFU=    16     4
 Initial guess from the checkpoint file:  "C:\Calculation\transition states\optCO1H1.chk"
 B after Tr=     0.000000    0.000000    0.000000
         Rot=    0.999978    0.000000    0.000000   -0.006626 Ang=  -0.76 deg.
 Initial guess orbital symmetries:
 Alpha Orbitals:
       Occupied  (A') (A') (A') (A') (A') (A") (A') (A')
       Virtual   (A") (A') (A') (A") (A') (A') (A') (A') (A") (A')
                 (A') (A')
 Beta  Orbitals:
       Occupied  (A') (A') (A') (A') (A") (A') (A')
       Virtual   (A') (A") (A') (A') (A") (A') (A') (A') (A') (A")
                 (A') (A') (A')
 Initial guess <Sx>= 0.0000 <Sy>= 0.0000 <Sz>= 0.5000 <S**2>= 0.7511 S= 0.5005
 ExpMin= 1.61D-01 ExpMax= 5.48D+03 ExpMxC= 8.25D+02 IAcc=3 IRadAn=         5 AccDes= 0.00D+00
 Harris functional with IExCor=  402 and IRadAn=       5 diagonalized for initial guess.
 HarFok:  IExCor=  402 AccDes= 0.00D+00 IRadAn=         5 IDoV= 1 UseB2=F ITyADJ=14
 ICtDFT=  3500011 ScaDFX=  1.000000  1.000000  1.000000  1.000000
 FoFCou: FMM=F IPFlag=           0 FMFlag=      100000 FMFlg1=           0
         NFxFlg=           0 DoJE=T BraDBF=F KetDBF=T FulRan=T
         wScrn=  0.000000 ICntrl=       500 IOpCl=  0 I1Cent=   200000004 NGrid=           0
         NMat0=    1 NMatS0=      1 NMatT0=    0 NMatD0=    1 NMtDS0=    0 NMtDT0=    0
 Petite list used in FoFCou.
 Keep R1 and R2 ints in memory in symmetry-blocked form, NReq=889709.
 Requested convergence on RMS density matrix=1.00D-08 within 128 cycles.
 Requested convergence on MAX density matrix=1.00D-06.
 Requested convergence on             energy=1.00D-06.
 No special actions if energy rises.
 Integral accuracy reduced to 1.0D-05 until final iterations.
 Initial convergence to 1.0D-05 achieved.  Increase integral accuracy.
 SCF Done:  E(UB3LYP) =  -113.719553106     A.U. after   14 cycles
            NFock= 14  Conv=0.54D-08     -V/T= 2.0007
 <Sx>= 0.0000 <Sy>= 0.0000 <Sz>= 0.5000 <S**2>= 0.7512 S= 0.5006
 <L.S>= 0.000000000000E+00
 Annihilation of the first spin contaminant:
 S**2 before annihilation     0.7512,   after     0.7500
 Calling FoFJK, ICntrl=      2127 FMM=F ISym2X=1 I1Cent= 0 IOpClX= 1 NMat=1 NMatS=1 NMatT=0.
 ***** Axes restored to original set *****
 -------------------------------------------------------------------
 Center     Atomic                   Forces (Hartrees/Bohr)
 Number     Number              X              Y              Z
 -------------------------------------------------------------------
      1        6          -0.224820032   -0.043723158    0.000000000
      2        8           0.198045064    0.014251706    0.000000000
      3        1           0.026774968    0.029471452    0.000000000
 -------------------------------------------------------------------
 Cartesian Forces:  Max     0.224820032 RMS     0.101907466

 GradGradGradGradGradGradGradGradGradGradGradGradGradGradGradGradGradGrad
 Berny optimization.
 Using GEDIIS/GDIIS optimizer.
 FormGI is forming the generalized inverse of G from B-inverse, IUseBI=4.
 Internal  Forces:  Max     0.228987232 RMS     0.134283874
 Search for a local minimum.
 Step number   2 out of a maximum of   20
 All quantities printed in internal units (Hartrees-Bohrs-Radians)
 Mixed Optimization -- RFO/linear search
 Update second derivatives using D2CorX and points    1    2
 DE= -9.01D-02 DEPred=-7.52D-02 R= 1.20D+00
 TightC=F SS=  1.41D+00  RLast= 2.91D-01 DXNew= 5.0454D-01 8.7233D-01
 Trust test= 1.20D+00 RLast= 2.91D-01 DXMaxT set to 5.05D-01
 The second derivative matrix:
                          R1        R2        A1
           R1           2.66763
           R2          -0.04411   0.12494
           A1           0.02224   0.00094   0.15976
 ITU=  1  0
 Use linear search instead of GDIIS.
     Eigenvalues ---    0.12413   0.15962   2.66860
 RFO step:  Lambda=-1.40178481D-01 EMin= 1.24127367D-01
 Quartic linear search produced a step of  1.27188.
 Maximum step size (   0.505) exceeded in Quadratic search.
    -- Step size scaled by   0.743
 Iteration  1 RMS(Cart)=  0.14618440 RMS(Int)=  0.33536127
 Iteration  2 RMS(Cart)=  0.09048547 RMS(Int)=  0.21983286
 Iteration  3 RMS(Cart)=  0.09324085 RMS(Int)=  0.10436309
 Iteration  4 RMS(Cart)=  0.08440835 RMS(Int)=  0.00014930
 Iteration  5 RMS(Cart)=  0.00018063 RMS(Int)=  0.00000002
 Iteration  6 RMS(Cart)=  0.00000002 RMS(Int)=  0.00000000
 ClnCor:  largest displacement from symmetrization is 1.14D-15 for atom     3.
 Variable       Old X    -DE/DX   Delta X   Delta X   Delta X     New X
                                 (Linear)    (Quad)   (Total)
    R1        2.03760   0.22899   0.22782  -0.05344   0.17438   2.21197
    R2        2.96988   0.03970   0.28764   0.49503   0.78267   3.75255
    A1        2.59849  -0.00925  -0.04628  -0.08152  -0.12780   2.47069
         Item               Value     Threshold  Converged?
 Maximum Force            0.228987     0.000450     NO 
 RMS     Force            0.134284     0.000300     NO 
 Maximum Displacement     0.393183     0.001800     NO 
 RMS     Displacement     0.391057     0.001200     NO 
 Predicted change in Energy=-1.339176D-03
 GradGradGradGradGradGradGradGradGradGradGradGradGradGradGradGradGradGrad

                          Input orientation:                          
 ---------------------------------------------------------------------
 Center     Atomic      Atomic             Coordinates (Angstroms)
 Number     Number       Type             X           Y           Z
 ---------------------------------------------------------------------
      1          6           0       -2.367104   -0.479059    0.000000
      2          8           0       -1.204413   -0.343847    0.000000
      3          1           0        0.197946    1.062086    0.000000
 ---------------------------------------------------------------------
                    Distance matrix (angstroms):
                    1          2          3
     1  C    0.000000
     2  O    1.170526   0.000000
     3  H    2.992425   1.985765   0.000000
 Stoichiometry    CHO(2)
 Framework group  CS[SG(CHO)]
 Deg. of freedom     3
 Full point group                 CS      NOp   2
 Largest Abelian subgroup         CS      NOp   2
 Largest concise Abelian subgroup C1      NOp   1
                         Standard orientation:                         
 ---------------------------------------------------------------------
 Center     Atomic      Atomic             Coordinates (Angstroms)
 Number     Number       Type             X           Y           Z
 ---------------------------------------------------------------------
      1          6           0        0.082302   -0.806008    0.000000
      2          8           0        0.082302    0.364519    0.000000
      3          1           0       -1.152229    1.919895    0.000000
 ---------------------------------------------------------------------
 Rotational constants (GHZ):         507.9426830          36.1030511          33.7072410
 Standard basis: 6-31G (6D, 7F)
 There are    16 symmetry adapted cartesian basis functions of A'  symmetry.
 There are     4 symmetry adapted cartesian basis functions of A"  symmetry.
 There are    16 symmetry adapted basis functions of A'  symmetry.
 There are     4 symmetry adapted basis functions of A"  symmetry.
    20 basis functions,    48 primitive gaussians,    20 cartesian basis functions
     8 alpha electrons        7 beta electrons
       nuclear repulsion energy        24.8929890162 Hartrees.
 NAtoms=    3 NActive=    3 NUniq=    3 SFac= 1.00D+00 NAtFMM=   60 NAOKFM=F Big=F
 Integral buffers will be    131072 words long.
 Raffenetti 2 integral format.
 Two-electron integral symmetry is turned on.
 One-electron integrals computed using PRISM.
 NBasis=    20 RedAO= T EigKep=  2.37D-02  NBF=    16     4
 NBsUse=    20 1.00D-06 EigRej= -1.00D+00 NBFU=    16     4
 Initial guess from the checkpoint file:  "C:\Calculation\transition states\optCO1H1.chk"
 B after Tr=     0.000000    0.000000    0.000000
         Rot=    0.999552    0.000000    0.000000   -0.029926 Ang=  -3.43 deg.
 Initial guess orbital symmetries:
 Alpha Orbitals:
       Occupied  (A') (A') (A') (A') (A') (A") (A') (A')
       Virtual   (A") (A') (A') (A') (A") (A') (A') (A') (A") (A')
                 (A') (A')
 Beta  Orbitals:
       Occupied  (A') (A') (A') (A') (A') (A") (A')
       Virtual   (A') (A") (A') (A') (A") (A') (A') (A') (A') (A")
                 (A') (A') (A')
 Initial guess <Sx>= 0.0000 <Sy>= 0.0000 <Sz>= 0.5000 <S**2>= 0.7514 S= 0.5007
 ExpMin= 1.61D-01 ExpMax= 5.48D+03 ExpMxC= 8.25D+02 IAcc=3 IRadAn=         5 AccDes= 0.00D+00
 Harris functional with IExCor=  402 and IRadAn=       5 diagonalized for initial guess.
 HarFok:  IExCor=  402 AccDes= 0.00D+00 IRadAn=         5 IDoV= 1 UseB2=F ITyADJ=14
 ICtDFT=  3500011 ScaDFX=  1.000000  1.000000  1.000000  1.000000
 FoFCou: FMM=F IPFlag=           0 FMFlag=      100000 FMFlg1=           0
         NFxFlg=           0 DoJE=T BraDBF=F KetDBF=T FulRan=T
         wScrn=  0.000000 ICntrl=       500 IOpCl=  0 I1Cent=   200000004 NGrid=           0
         NMat0=    1 NMatS0=      1 NMatT0=    0 NMatD0=    1 NMtDS0=    0 NMtDT0=    0
 Petite list used in FoFCou.
 Keep R1 and R2 ints in memory in symmetry-blocked form, NReq=889709.
 Requested convergence on RMS density matrix=1.00D-08 within 128 cycles.
 Requested convergence on MAX density matrix=1.00D-06.
 Requested convergence on             energy=1.00D-06.
 No special actions if energy rises.
 Integral accuracy reduced to 1.0D-05 until final iterations.
 Initial convergence to 1.0D-05 achieved.  Increase integral accuracy.
 SCF Done:  E(UB3LYP) =  -113.753271543     A.U. after   14 cycles
            NFock= 14  Conv=0.61D-08     -V/T= 2.0057
 <Sx>= 0.0000 <Sy>= 0.0000 <Sz>= 0.5000 <S**2>= 0.7504 S= 0.5002
 <L.S>= 0.000000000000E+00
 Annihilation of the first spin contaminant:
 S**2 before annihilation     0.7504,   after     0.7500
 Calling FoFJK, ICntrl=      2127 FMM=F ISym2X=1 I1Cent= 0 IOpClX= 1 NMat=1 NMatS=1 NMatT=0.
 ***** Axes restored to original set *****
 -------------------------------------------------------------------
 Center     Atomic                   Forces (Hartrees/Bohr)
 Number     Number              X              Y              Z
 -------------------------------------------------------------------
      1        6           0.024092087    0.003519655    0.000000000
      2        8          -0.031390333   -0.011431046    0.000000000
      3        1           0.007298246    0.007911391    0.000000000
 -------------------------------------------------------------------
 Cartesian Forces:  Max     0.031390333 RMS     0.014238808

 GradGradGradGradGradGradGradGradGradGradGradGradGradGradGradGradGradGrad
 Berny optimization.
 Using GEDIIS/GDIIS optimizer.
 FormGI is forming the generalized inverse of G from B-inverse, IUseBI=4.
 Internal  Forces:  Max     0.024337465 RMS     0.015389151
 Search for a local minimum.
 Step number   3 out of a maximum of   20
 All quantities printed in internal units (Hartrees-Bohrs-Radians)
 Mixed Optimization -- RFO/linear search
 Update second derivatives using D2CorX and points    2    3
 DE= -3.37D-02 DEPred=-1.34D-03 R= 2.52D+01
 TightC=F SS=  1.41D+00  RLast= 8.12D-01 DXNew= 8.4853D-01 2.4359D+00
 Trust test= 2.52D+01 RLast= 8.12D-01 DXMaxT set to 8.49D-01
 The second derivative matrix:
                          R1        R2        A1
           R1           2.36938
           R2          -0.19777   0.08224
           A1           0.03955   0.00734   0.15893
 ITU=  1  1  0
 Use linear search instead of GDIIS.
     Eigenvalues ---    0.06405   0.15947   2.38703
 RFO step:  Lambda=-1.83396987D-03 EMin= 6.40492366D-02
 Quartic linear search produced a step of  0.10946.
 Iteration  1 RMS(Cart)=  0.08607949 RMS(Int)=  0.00030463
 Iteration  2 RMS(Cart)=  0.00029752 RMS(Int)=  0.00000003
 Iteration  3 RMS(Cart)=  0.00000003 RMS(Int)=  0.00000000
 ClnCor:  largest displacement from symmetrization is 1.85D-15 for atom     3.
 Variable       Old X    -DE/DX   Delta X   Delta X   Delta X     New X
                                 (Linear)    (Quad)   (Total)
    R1        2.21197  -0.02434   0.01909  -0.01277   0.00632   2.21829
    R2        3.75255   0.01076   0.08567   0.10408   0.18975   3.94231
    A1        2.47069  -0.00158  -0.01399  -0.00987  -0.02385   2.44684
         Item               Value     Threshold  Converged?
 Maximum Force            0.024337     0.000450     NO 
 RMS     Force            0.015389     0.000300     NO 
 Maximum Displacement     0.088046     0.001800     NO 
 RMS     Displacement     0.085959     0.001200     NO 
 Predicted change in Energy=-6.279511D-04
 GradGradGradGradGradGradGradGradGradGradGradGradGradGradGradGradGradGrad

                          Input orientation:                          
 ---------------------------------------------------------------------
 Center     Atomic      Atomic             Coordinates (Angstroms)
 Number     Number       Type             X           Y           Z
 ---------------------------------------------------------------------
      1          6           0       -2.393364   -0.487870    0.000000
      2          8           0       -1.224746   -0.376972    0.000000
      3          1           0        0.244538    1.104022    0.000000
 ---------------------------------------------------------------------
                    Distance matrix (angstroms):
                    1          2          3
     1  C    0.000000
     2  O    1.173868   0.000000
     3  H    3.081014   2.086178   0.000000
 Stoichiometry    CHO(2)
 Framework group  CS[SG(CHO)]
 Deg. of freedom     3
 Full point group                 CS      NOp   2
 Largest Abelian subgroup         CS      NOp   2
 Largest concise Abelian subgroup C1      NOp   1
                         Standard orientation:                         
 ---------------------------------------------------------------------
 Center     Atomic      Atomic             Coordinates (Angstroms)
 Number     Number       Type             X           Y           Z
 ---------------------------------------------------------------------
      1          6           0        0.089038   -0.811163    0.000000
      2          8           0        0.089038    0.362706    0.000000
      3          1           0       -1.246526    1.965331    0.000000
 ---------------------------------------------------------------------
 Rotational constants (GHZ):         442.5180756          35.2067605          32.6121372
 Standard basis: 6-31G (6D, 7F)
 There are    16 symmetry adapted cartesian basis functions of A'  symmetry.
 There are     4 symmetry adapted cartesian basis functions of A"  symmetry.
 There are    16 symmetry adapted basis functions of A'  symmetry.
 There are     4 symmetry adapted basis functions of A"  symmetry.
    20 basis functions,    48 primitive gaussians,    20 cartesian basis functions
     8 alpha electrons        7 beta electrons
       nuclear repulsion energy        24.6980908345 Hartrees.
 NAtoms=    3 NActive=    3 NUniq=    3 SFac= 1.00D+00 NAtFMM=   60 NAOKFM=F Big=F
 Integral buffers will be    131072 words long.
 Raffenetti 2 integral format.
 Two-electron integral symmetry is turned on.
 One-electron integrals computed using PRISM.
 NBasis=    20 RedAO= T EigKep=  2.40D-02  NBF=    16     4
 NBsUse=    20 1.00D-06 EigRej= -1.00D+00 NBFU=    16     4
 Initial guess from the checkpoint file:  "C:\Calculation\transition states\optCO1H1.chk"
 B after Tr=     0.000000    0.000000    0.000000
         Rot=    0.999978    0.000000    0.000000   -0.006698 Ang=  -0.77 deg.
 Initial guess orbital symmetries:
 Alpha Orbitals:
       Occupied  (A') (A') (A') (A') (A') (A") (A') (A')
       Virtual   (A") (A') (A') (A') (A") (A') (A') (A') (A') (A")
                 (A') (A')
 Beta  Orbitals:
       Occupied  (A') (A') (A') (A') (A') (A") (A')
       Virtual   (A') (A") (A') (A') (A") (A') (A') (A') (A') (A")
                 (A') (A') (A')
 Initial guess <Sx>= 0.0000 <Sy>= 0.0000 <Sz>= 0.5000 <S**2>= 0.7504 S= 0.5002
 ExpMin= 1.61D-01 ExpMax= 5.48D+03 ExpMxC= 8.25D+02 IAcc=3 IRadAn=         5 AccDes= 0.00D+00
 Harris functional with IExCor=  402 and IRadAn=       5 diagonalized for initial guess.
 HarFok:  IExCor=  402 AccDes= 0.00D+00 IRadAn=         5 IDoV= 1 UseB2=F ITyADJ=14
 ICtDFT=  3500011 ScaDFX=  1.000000  1.000000  1.000000  1.000000
 FoFCou: FMM=F IPFlag=           0 FMFlag=      100000 FMFlg1=           0
         NFxFlg=           0 DoJE=T BraDBF=F KetDBF=T FulRan=T
         wScrn=  0.000000 ICntrl=       500 IOpCl=  0 I1Cent=   200000004 NGrid=           0
         NMat0=    1 NMatS0=      1 NMatT0=    0 NMatD0=    1 NMtDS0=    0 NMtDT0=    0
 Petite list used in FoFCou.
 Keep R1 and R2 ints in memory in symmetry-blocked form, NReq=889709.
 Requested convergence on RMS density matrix=1.00D-08 within 128 cycles.
 Requested convergence on MAX density matrix=1.00D-06.
 Requested convergence on             energy=1.00D-06.
 No special actions if energy rises.
 Integral accuracy reduced to 1.0D-05 until final iterations.
 Initial convergence to 1.0D-05 achieved.  Increase integral accuracy.
 SCF Done:  E(UB3LYP) =  -113.754869459     A.U. after   13 cycles
            NFock= 13  Conv=0.96D-08     -V/T= 2.0059
 <Sx>= 0.0000 <Sy>= 0.0000 <Sz>= 0.5000 <S**2>= 0.7503 S= 0.5001
 <L.S>= 0.000000000000E+00
 Annihilation of the first spin contaminant:
 S**2 before annihilation     0.7503,   after     0.7500
 Calling FoFJK, ICntrl=      2127 FMM=F ISym2X=1 I1Cent= 0 IOpClX= 1 NMat=1 NMatS=1 NMatT=0.
 ***** Axes restored to original set *****
 -------------------------------------------------------------------
 Center     Atomic                   Forces (Hartrees/Bohr)
 Number     Number              X              Y              Z
 -------------------------------------------------------------------
      1        6           0.031579455    0.003416949    0.000000000
      2        8          -0.036897084   -0.009110569    0.000000000
      3        1           0.005317629    0.005693620    0.000000000
 -------------------------------------------------------------------
 Cartesian Forces:  Max     0.036897084 RMS     0.016713366

 GradGradGradGradGradGradGradGradGradGradGradGradGradGradGradGradGradGrad
 Berny optimization.
 Using GEDIIS/GDIIS optimizer.
 FormGI is forming the generalized inverse of G from B-inverse, IUseBI=4.
 Internal  Forces:  Max     0.031761096 RMS     0.018887979
 Search for a local minimum.
 Step number   4 out of a maximum of   20
 All quantities printed in internal units (Hartrees-Bohrs-Radians)
 Mixed Optimization -- RFO/linear search
 Update second derivatives using D2CorX and points    3    4
 DE= -1.60D-03 DEPred=-6.28D-04 R= 2.54D+00
 TightC=F SS=  1.41D+00  RLast= 1.91D-01 DXNew= 1.4270D+00 5.7406D-01
 Trust test= 2.54D+00 RLast= 1.91D-01 DXMaxT set to 8.49D-01
 The second derivative matrix:
                          R1        R2        A1
           R1           2.24440
           R2          -0.03402   0.01879
           A1           0.01236   0.01601   0.15783
 ITU=  1  1  1  0
 Use linear search instead of GDIIS.
     Eigenvalues ---    0.01641   0.15961   2.24499
 RFO step:  Lambda=-1.00947230D-03 EMin= 1.64119900D-02
 Quartic linear search produced a step of  2.00000.
 Iteration  1 RMS(Cart)=  0.08742820 RMS(Int)=  0.13070254
 Iteration  2 RMS(Cart)=  0.09292362 RMS(Int)=  0.01522952
 Iteration  3 RMS(Cart)=  0.01237776 RMS(Int)=  0.00000248
 Iteration  4 RMS(Cart)=  0.00000323 RMS(Int)=  0.00000000
 Iteration  5 RMS(Cart)=  0.00000000 RMS(Int)=  0.00000000
 ClnCor:  largest displacement from symmetrization is 3.30D-15 for atom     3.
 Variable       Old X    -DE/DX   Delta X   Delta X   Delta X     New X
                                 (Linear)    (Quad)   (Total)
    R1        2.21829  -0.03176   0.01263  -0.02005  -0.00742   2.21087
    R2        3.94231   0.00779   0.37951   0.04700   0.42651   4.36881
    A1        2.44684  -0.00093  -0.04771  -0.00064  -0.04835   2.39849
         Item               Value     Threshold  Converged?
 Maximum Force            0.031761     0.000450     NO 
 RMS     Force            0.018888     0.000300     NO 
 Maximum Displacement     0.193840     0.001800     NO 
 RMS     Displacement     0.188995     0.001200     NO 
 Predicted change in Energy=-1.864753D-03
 GradGradGradGradGradGradGradGradGradGradGradGradGradGradGradGradGradGrad

                          Input orientation:                          
 ---------------------------------------------------------------------
 Center     Atomic      Atomic             Coordinates (Angstroms)
 Number     Number       Type             X           Y           Z
 ---------------------------------------------------------------------
      1          6           0       -2.444603   -0.507472    0.000000
      2          8           0       -1.276082   -0.449779    0.000000
      3          1           0        0.347113    1.196431    0.000000
 ---------------------------------------------------------------------
                    Distance matrix (angstroms):
                    1          2          3
     1  C    0.000000
     2  O    1.169944   0.000000
     3  H    3.270622   2.311876   0.000000
 Stoichiometry    CHO(2)
 Framework group  CS[SG(CHO)]
 Deg. of freedom     3
 Full point group                 CS      NOp   2
 Largest Abelian subgroup         CS      NOp   2
 Largest concise Abelian subgroup C1      NOp   1
                         Standard orientation:                         
 ---------------------------------------------------------------------
 Center     Atomic      Atomic             Coordinates (Angstroms)
 Number     Number       Type             X           Y           Z
 ---------------------------------------------------------------------
      1          6           0        0.104277   -0.815460    0.000000
      2          8           0        0.104277    0.354484    0.000000
      3          1           0       -1.459884    2.056885    0.000000
 ---------------------------------------------------------------------
 Rotational constants (GHZ):         339.4111990          33.6903411          30.6481690
 Standard basis: 6-31G (6D, 7F)
 There are    16 symmetry adapted cartesian basis functions of A'  symmetry.
 There are     4 symmetry adapted cartesian basis functions of A"  symmetry.
 There are    16 symmetry adapted basis functions of A'  symmetry.
 There are     4 symmetry adapted basis functions of A"  symmetry.
    20 basis functions,    48 primitive gaussians,    20 cartesian basis functions
     8 alpha electrons        7 beta electrons
       nuclear repulsion energy        24.5128128817 Hartrees.
 NAtoms=    3 NActive=    3 NUniq=    3 SFac= 1.00D+00 NAtFMM=   60 NAOKFM=F Big=F
 Integral buffers will be    131072 words long.
 Raffenetti 2 integral format.
 Two-electron integral symmetry is turned on.
 One-electron integrals computed using PRISM.
 NBasis=    20 RedAO= T EigKep=  2.38D-02  NBF=    16     4
 NBsUse=    20 1.00D-06 EigRej= -1.00D+00 NBFU=    16     4
 Initial guess from the checkpoint file:  "C:\Calculation\transition states\optCO1H1.chk"
 B after Tr=     0.000000    0.000000    0.000000
         Rot=    0.999889    0.000000    0.000000   -0.014872 Ang=  -1.70 deg.
 Initial guess orbital symmetries:
 Alpha Orbitals:
       Occupied  (A') (A') (A') (A') (A') (A") (A') (A')
       Virtual   (A") (A') (A') (A') (A") (A') (A') (A') (A') (A")
                 (A') (A')
 Beta  Orbitals:
       Occupied  (A') (A') (A') (A') (A') (A") (A')
       Virtual   (A') (A") (A') (A') (A") (A') (A') (A') (A') (A")
                 (A') (A') (A')
 Initial guess <Sx>= 0.0000 <Sy>= 0.0000 <Sz>= 0.5000 <S**2>= 0.7503 S= 0.5001
 ExpMin= 1.61D-01 ExpMax= 5.48D+03 ExpMxC= 8.25D+02 IAcc=3 IRadAn=         5 AccDes= 0.00D+00
 Harris functional with IExCor=  402 and IRadAn=       5 diagonalized for initial guess.
 HarFok:  IExCor=  402 AccDes= 0.00D+00 IRadAn=         5 IDoV= 1 UseB2=F ITyADJ=14
 ICtDFT=  3500011 ScaDFX=  1.000000  1.000000  1.000000  1.000000
 FoFCou: FMM=F IPFlag=           0 FMFlag=      100000 FMFlg1=           0
         NFxFlg=           0 DoJE=T BraDBF=F KetDBF=T FulRan=T
         wScrn=  0.000000 ICntrl=       500 IOpCl=  0 I1Cent=   200000004 NGrid=           0
         NMat0=    1 NMatS0=      1 NMatT0=    0 NMatD0=    1 NMtDS0=    0 NMtDT0=    0
 Petite list used in FoFCou.
 Keep R1 and R2 ints in memory in symmetry-blocked form, NReq=889709.
 Requested convergence on RMS density matrix=1.00D-08 within 128 cycles.
 Requested convergence on MAX density matrix=1.00D-06.
 Requested convergence on             energy=1.00D-06.
 No special actions if energy rises.
 Integral accuracy reduced to 1.0D-05 until final iterations.
 Initial convergence to 1.0D-05 achieved.  Increase integral accuracy.
 SCF Done:  E(UB3LYP) =  -113.757450143     A.U. after   14 cycles
            NFock= 14  Conv=0.29D-08     -V/T= 2.0059
 <Sx>= 0.0000 <Sy>= 0.0000 <Sz>= 0.5000 <S**2>= 0.7501 S= 0.5001
 <L.S>= 0.000000000000E+00
 Annihilation of the first spin contaminant:
 S**2 before annihilation     0.7501,   after     0.7500
 Calling FoFJK, ICntrl=      2127 FMM=F ISym2X=1 I1Cent= 0 IOpClX= 1 NMat=1 NMatS=1 NMatT=0.
 ***** Axes restored to original set *****
 -------------------------------------------------------------------
 Center     Atomic                   Forces (Hartrees/Bohr)
 Number     Number              X              Y              Z
 -------------------------------------------------------------------
      1        6           0.025981046    0.001389684    0.000000000
      2        8          -0.028504611   -0.004024612    0.000000000
      3        1           0.002523565    0.002634927    0.000000000
 -------------------------------------------------------------------
 Cartesian Forces:  Max     0.028504611 RMS     0.012991311

 GradGradGradGradGradGradGradGradGradGradGradGradGradGradGradGradGradGrad
 Berny optimization.
 Using GEDIIS/GDIIS optimizer.
 FormGI is forming the generalized inverse of G from B-inverse, IUseBI=4.
 Internal  Forces:  Max     0.026018168 RMS     0.015169151
 Search for a local minimum.
 Step number   5 out of a maximum of   20
 All quantities printed in internal units (Hartrees-Bohrs-Radians)
 Mixed Optimization -- RFO/linear search
 Update second derivatives using D2CorX and points    4    5
 DE= -2.58D-03 DEPred=-1.86D-03 R= 1.38D+00
 TightC=F SS=  1.41D+00  RLast= 4.29D-01 DXNew= 1.4270D+00 1.2879D+00
 Trust test= 1.38D+00 RLast= 4.29D-01 DXMaxT set to 1.29D+00
 The second derivative matrix:
                          R1        R2        A1
           R1           1.97213
           R2           0.02154   0.01194
           A1           0.00634   0.01638   0.15786
 ITU=  1  1  1  1
 Use linear search instead of GDIIS.
     Eigenvalues ---    0.00990   0.15963   1.97239
 RFO step:  Lambda=-1.12109220D-04 EMin= 9.90085417D-03
 Quartic linear search produced a step of  2.00000.
 Iteration  1 RMS(Cart)=  0.09366164 RMS(Int)=  0.37139284
 Iteration  2 RMS(Cart)=  0.09218112 RMS(Int)=  0.25590717
 Iteration  3 RMS(Cart)=  0.09341744 RMS(Int)=  0.14043710
 Iteration  4 RMS(Cart)=  0.09346515 RMS(Int)=  0.02496720
 Iteration  5 RMS(Cart)=  0.02026100 RMS(Int)=  0.00000450
 Iteration  6 RMS(Cart)=  0.00000618 RMS(Int)=  0.00000000
 Iteration  7 RMS(Cart)=  0.00000000 RMS(Int)=  0.00000000
 ClnCor:  largest displacement from symmetrization is 2.99D-15 for atom     3.
 Variable       Old X    -DE/DX   Delta X   Delta X   Delta X     New X
                                 (Linear)    (Quad)   (Total)
    R1        2.21087  -0.02602  -0.01483  -0.00732  -0.02215   2.18872
    R2        4.36881   0.00365   0.85301  -0.00916   0.84385   5.21267
    A1        2.39849  -0.00023  -0.09670   0.00533  -0.09137   2.30712
         Item               Value     Threshold  Converged?
 Maximum Force            0.026018     0.000450     NO 
 RMS     Force            0.015169     0.000300     NO 
 Maximum Displacement     0.379732     0.001800     NO 
 RMS     Displacement     0.370978     0.001200     NO 
 Predicted change in Energy=-6.329722D-05
 GradGradGradGradGradGradGradGradGradGradGradGradGradGradGradGradGradGrad

                          Input orientation:                          
 ---------------------------------------------------------------------
 Center     Atomic      Atomic             Coordinates (Angstroms)
 Number     Number       Type             X           Y           Z
 ---------------------------------------------------------------------
      1          6           0       -2.539492   -0.547248    0.000000
      2          8           0       -1.382139   -0.592083    0.000000
      3          1           0        0.548059    1.378510    0.000000
 ---------------------------------------------------------------------
                    Distance matrix (angstroms):
                    1          2          3
     1  C    0.000000
     2  O    1.158220   0.000000
     3  H    3.638889   2.758424   0.000000
 Stoichiometry    CHO(2)
 Framework group  CS[SG(CHO)]
 Deg. of freedom     3
 Full point group                 CS      NOp   2
 Largest Abelian subgroup         CS      NOp   2
 Largest concise Abelian subgroup C1      NOp   1
                         Standard orientation:                         
 ---------------------------------------------------------------------
 Center     Atomic      Atomic             Coordinates (Angstroms)
 Number     Number       Type             X           Y           Z
 ---------------------------------------------------------------------
      1          6           0        0.136256   -0.818430    0.000000
      2          8           0        0.136256    0.339790    0.000000
      3          1           0       -1.907578    2.192260    0.000000
 ---------------------------------------------------------------------
 Rotational constants (GHZ):         220.9650190          30.9262985          27.1292802
 Standard basis: 6-31G (6D, 7F)
 There are    16 symmetry adapted cartesian basis functions of A'  symmetry.
 There are     4 symmetry adapted cartesian basis functions of A"  symmetry.
 There are    16 symmetry adapted basis functions of A'  symmetry.
 There are     4 symmetry adapted basis functions of A"  symmetry.
    20 basis functions,    48 primitive gaussians,    20 cartesian basis functions
     8 alpha electrons        7 beta electrons
       nuclear repulsion energy        24.3378920788 Hartrees.
 NAtoms=    3 NActive=    3 NUniq=    3 SFac= 1.00D+00 NAtFMM=   60 NAOKFM=F Big=F
 Integral buffers will be    131072 words long.
 Raffenetti 2 integral format.
 Two-electron integral symmetry is turned on.
 One-electron integrals computed using PRISM.
 NBasis=    20 RedAO= T EigKep=  2.33D-02  NBF=    16     4
 NBsUse=    20 1.00D-06 EigRej= -1.00D+00 NBFU=    16     4
 Initial guess from the checkpoint file:  "C:\Calculation\transition states\optCO1H1.chk"
 B after Tr=     0.000000    0.000000    0.000000
         Rot=    0.999518    0.000000    0.000000   -0.031047 Ang=  -3.56 deg.
 Initial guess orbital symmetries:
 Alpha Orbitals:
       Occupied  (A') (A') (A') (A') (A') (A") (A') (A')
       Virtual   (A") (A') (A') (A') (A") (A') (A') (A') (A') (A")
                 (A') (A')
 Beta  Orbitals:
       Occupied  (A') (A') (A') (A') (A') (A") (A')
       Virtual   (A') (A") (A') (A') (A") (A') (A') (A') (A') (A')
                 (A") (A') (A')
 Initial guess <Sx>= 0.0000 <Sy>= 0.0000 <Sz>= 0.5000 <S**2>= 0.7501 S= 0.5001
 ExpMin= 1.61D-01 ExpMax= 5.48D+03 ExpMxC= 8.25D+02 IAcc=3 IRadAn=         5 AccDes= 0.00D+00
 Harris functional with IExCor=  402 and IRadAn=       5 diagonalized for initial guess.
 HarFok:  IExCor=  402 AccDes= 0.00D+00 IRadAn=         5 IDoV= 1 UseB2=F ITyADJ=14
 ICtDFT=  3500011 ScaDFX=  1.000000  1.000000  1.000000  1.000000
 FoFCou: FMM=F IPFlag=           0 FMFlag=      100000 FMFlg1=           0
         NFxFlg=           0 DoJE=T BraDBF=F KetDBF=T FulRan=T
         wScrn=  0.000000 ICntrl=       500 IOpCl=  0 I1Cent=   200000004 NGrid=           0
         NMat0=    1 NMatS0=      1 NMatT0=    0 NMatD0=    1 NMtDS0=    0 NMtDT0=    0
 Petite list used in FoFCou.
 Keep R1 and R2 ints in memory in symmetry-blocked form, NReq=889709.
 Requested convergence on RMS density matrix=1.00D-08 within 128 cycles.
 Requested convergence on MAX density matrix=1.00D-06.
 Requested convergence on             energy=1.00D-06.
 No special actions if energy rises.
 Integral accuracy reduced to 1.0D-05 until final iterations.
 Initial convergence to 1.0D-05 achieved.  Increase integral accuracy.
 SCF Done:  E(UB3LYP) =  -113.759309412     A.U. after   14 cycles
            NFock= 14  Conv=0.18D-08     -V/T= 2.0056
 <Sx>= 0.0000 <Sy>= 0.0000 <Sz>= 0.5000 <S**2>= 0.7500 S= 0.5000
 <L.S>= 0.000000000000E+00
 Annihilation of the first spin contaminant:
 S**2 before annihilation     0.7500,   after     0.7500
 Calling FoFJK, ICntrl=      2127 FMM=F ISym2X=1 I1Cent= 0 IOpClX= 1 NMat=1 NMatS=1 NMatT=0.
 ***** Axes restored to original set *****
 -------------------------------------------------------------------
 Center     Atomic                   Forces (Hartrees/Bohr)
 Number     Number              X              Y              Z
 -------------------------------------------------------------------
      1        6           0.003847541   -0.000148175    0.000000000
      2        8          -0.004305901   -0.000319407    0.000000000
      3        1           0.000458360    0.000467582    0.000000000
 -------------------------------------------------------------------
 Cartesian Forces:  Max     0.004305901 RMS     0.001940706

 GradGradGradGradGradGradGradGradGradGradGradGradGradGradGradGradGradGrad
 Berny optimization.
 Using GEDIIS/GDIIS optimizer.
 FormGI is forming the generalized inverse of G from B-inverse, IUseBI=4.
 Internal  Forces:  Max     0.003850552 RMS     0.002255037
 Search for a local minimum.
 Step number   6 out of a maximum of   20
 All quantities printed in internal units (Hartrees-Bohrs-Radians)
 Mixed Optimization -- RFO/linear search
 Update second derivatives using D2CorX and points    5    6
 DE= -1.86D-03 DEPred=-6.33D-05 R= 2.94D+01
 TightC=F SS=  1.41D+00  RLast= 8.49D-01 DXNew= 2.1660D+00 2.5472D+00
 Trust test= 2.94D+01 RLast= 8.49D-01 DXMaxT set to 2.17D+00
 The second derivative matrix:
                          R1        R2        A1
           R1           2.04282
           R2           0.02795   0.00612
           A1           0.00546   0.01695   0.15780
 ITU=  1  1  1  1
 Use linear search instead of GDIIS.
     Eigenvalues ---    0.00388   0.15963   2.04322
 RFO step:  Lambda=-6.59115851D-04 EMin= 3.88257520D-03
 Quartic linear search produced a step of  1.77763.
 Iteration  1 RMS(Cart)=  0.13619117 RMS(Int)=  0.80696853
 Iteration  2 RMS(Cart)=  0.08979705 RMS(Int)=  0.69139479
 Iteration  3 RMS(Cart)=  0.09341015 RMS(Int)=  0.57592468
 Iteration  4 RMS(Cart)=  0.09342985 RMS(Int)=  0.46045463
 Iteration  5 RMS(Cart)=  0.09347514 RMS(Int)=  0.34498457
 Iteration  6 RMS(Cart)=  0.09351736 RMS(Int)=  0.22951452
 Iteration  7 RMS(Cart)=  0.09355644 RMS(Int)=  0.11404448
 Iteration  8 RMS(Cart)=  0.09243783 RMS(Int)=  0.00005469
 Iteration  9 RMS(Cart)=  0.00008115 RMS(Int)=  0.00000000
 Iteration 10 RMS(Cart)=  0.00000000 RMS(Int)=  0.00000000
 ClnCor:  largest displacement from symmetrization is 8.88D-16 for atom     3.
 Variable       Old X    -DE/DX   Delta X   Delta X   Delta X     New X
                                 (Linear)    (Quad)   (Total)
    R1        2.18872  -0.00385  -0.03938   0.01601  -0.02338   2.16534
    R2        5.21267   0.00065   1.50006   0.09901   1.59907   6.81173
    A1        2.30712   0.00000  -0.16242  -0.01234  -0.17476   2.13236
         Item               Value     Threshold  Converged?
 Maximum Force            0.003851     0.000450     NO 
 RMS     Force            0.002255     0.000300     NO 
 Maximum Displacement     0.709458     0.001800     NO 
 RMS     Displacement     0.698496     0.001200     NO 
 Predicted change in Energy=-3.890697D-03
 GradGradGradGradGradGradGradGradGradGradGradGradGradGradGradGradGradGrad

                          Input orientation:                          
 ---------------------------------------------------------------------
 Center     Atomic      Atomic             Coordinates (Angstroms)
 Number     Number       Type             X           Y           Z
 ---------------------------------------------------------------------
      1          6           0       -2.708949   -0.623388    0.000000
      2          8           0       -1.588111   -0.861496    0.000000
      3          1           0        0.923488    1.724063    0.000000
 ---------------------------------------------------------------------
                    Distance matrix (angstroms):
                    1          2          3
     1  C    0.000000
     2  O    1.145850   0.000000
     3  H    4.324942   3.604615   0.000000
 Stoichiometry    CHO(2)
 Framework group  CS[SG(CHO)]
 Deg. of freedom     3
 Full point group                 CS      NOp   2
 Largest Abelian subgroup         CS      NOp   2
 Largest concise Abelian subgroup C1      NOp   1
                         Standard orientation:                         
 ---------------------------------------------------------------------
 Center     Atomic      Atomic             Coordinates (Angstroms)
 Number     Number       Type             X           Y           Z
 ---------------------------------------------------------------------
      1          6           0        0.203402   -0.815476    0.000000
      2          8           0        0.203402    0.330374    0.000000
      3          1           0       -2.847628    2.249868    0.000000
 ---------------------------------------------------------------------
 Rotational constants (GHZ):         121.1309893          25.8655231          21.3142227
 Standard basis: 6-31G (6D, 7F)
 There are    16 symmetry adapted cartesian basis functions of A'  symmetry.
 There are     4 symmetry adapted cartesian basis functions of A"  symmetry.
 There are    16 symmetry adapted basis functions of A'  symmetry.
 There are     4 symmetry adapted basis functions of A"  symmetry.
    20 basis functions,    48 primitive gaussians,    20 cartesian basis functions
     8 alpha electrons        7 beta electrons
       nuclear repulsion energy        24.0759653759 Hartrees.
 NAtoms=    3 NActive=    3 NUniq=    3 SFac= 1.00D+00 NAtFMM=   60 NAOKFM=F Big=F
 Integral buffers will be    131072 words long.
 Raffenetti 2 integral format.
 Two-electron integral symmetry is turned on.
 One-electron integrals computed using PRISM.
 NBasis=    20 RedAO= T EigKep=  2.28D-02  NBF=    16     4
 NBsUse=    20 1.00D-06 EigRej= -1.00D+00 NBFU=    16     4
 Initial guess from the checkpoint file:  "C:\Calculation\transition states\optCO1H1.chk"
 B after Tr=     0.000000    0.000000    0.000000
         Rot=    0.997798    0.000000    0.000000   -0.066320 Ang=  -7.61 deg.
 Initial guess orbital symmetries:
 Alpha Orbitals:
       Occupied  (A') (A') (A') (A') (A') (A") (A') (A')
       Virtual   (A") (A') (A') (A') (A") (A') (A') (A') (A') (A")
                 (A') (A')
 Beta  Orbitals:
       Occupied  (A') (A') (A') (A') (A') (A") (A')
       Virtual   (A') (A") (A') (A') (A') (A") (A') (A') (A') (A')
                 (A") (A') (A')
 Initial guess <Sx>= 0.0000 <Sy>= 0.0000 <Sz>= 0.5000 <S**2>= 0.7500 S= 0.5000
 ExpMin= 1.61D-01 ExpMax= 5.48D+03 ExpMxC= 8.25D+02 IAcc=3 IRadAn=         5 AccDes= 0.00D+00
 Harris functional with IExCor=  402 and IRadAn=       5 diagonalized for initial guess.
 HarFok:  IExCor=  402 AccDes= 0.00D+00 IRadAn=         5 IDoV= 1 UseB2=F ITyADJ=14
 ICtDFT=  3500011 ScaDFX=  1.000000  1.000000  1.000000  1.000000
 FoFCou: FMM=F IPFlag=           0 FMFlag=      100000 FMFlg1=           0
         NFxFlg=           0 DoJE=T BraDBF=F KetDBF=T FulRan=T
         wScrn=  0.000000 ICntrl=       500 IOpCl=  0 I1Cent=   200000004 NGrid=           0
         NMat0=    1 NMatS0=      1 NMatT0=    0 NMatD0=    1 NMtDS0=    0 NMtDT0=    0
 Petite list used in FoFCou.
 Keep R1 and R2 ints in memory in symmetry-blocked form, NReq=889709.
 Requested convergence on RMS density matrix=1.00D-08 within 128 cycles.
 Requested convergence on MAX density matrix=1.00D-06.
 Requested convergence on             energy=1.00D-06.
 No special actions if energy rises.
 Integral accuracy reduced to 1.0D-05 until final iterations.
 Initial convergence to 1.0D-05 achieved.  Increase integral accuracy.
 SCF Done:  E(UB3LYP) =  -113.759262687     A.U. after   14 cycles
            NFock= 14  Conv=0.20D-08     -V/T= 2.0052
 <Sx>= 0.0000 <Sy>= 0.0000 <Sz>= 0.5000 <S**2>= 0.7500 S= 0.5000
 <L.S>= 0.000000000000E+00
 Annihilation of the first spin contaminant:
 S**2 before annihilation     0.7500,   after     0.7500
 Calling FoFJK, ICntrl=      2127 FMM=F ISym2X=1 I1Cent= 0 IOpClX= 1 NMat=1 NMatS=1 NMatT=0.
 ***** Axes restored to original set *****
 -------------------------------------------------------------------
 Center     Atomic                   Forces (Hartrees/Bohr)
 Number     Number              X              Y              Z
 -------------------------------------------------------------------
      1        6          -0.022063451    0.004692283    0.000000000
      2        8           0.022110145   -0.004647904    0.000000000
      3        1          -0.000046694   -0.000044379    0.000000000
 -------------------------------------------------------------------
 Cartesian Forces:  Max     0.022110145 RMS     0.010642050

 GradGradGradGradGradGradGradGradGradGradGradGradGradGradGradGradGradGrad
 Berny optimization.
 Using GEDIIS/GDIIS optimizer.
 FormGI is forming the generalized inverse of G from B-inverse, IUseBI=4.
 Internal  Forces:  Max     0.022557211 RMS     0.013023467
 Search for a local minimum.
 Step number   7 out of a maximum of   20
 All quantities printed in internal units (Hartrees-Bohrs-Radians)
 Mixed Optimization -- RFO/linear search
 Update second derivatives using D2CorX and points    7    6
 DE=  4.67D-05 DEPred=-3.89D-03 R=-1.20D-02
 Trust test=-1.20D-02 RLast= 1.61D+00 DXMaxT set to 1.08D+00
 The second derivative matrix:
                          R1        R2        A1
           R1           2.43618
           R2           0.01965   0.00263
           A1           0.00506   0.01732   0.15776
 ITU= -1  1  1  1
 Use linear search instead of GDIIS.
     Eigenvalues ---    0.00057   0.15965   2.43636
 RFO step:  Lambda=-2.03558722D-05 EMin= 5.71642568D-04
 Quartic linear search produced a step of -0.60956.
 Iteration  1 RMS(Cart)=  0.09584679 RMS(Int)=  0.40548932
 Iteration  2 RMS(Cart)=  0.09483864 RMS(Int)=  0.29000348
 Iteration  3 RMS(Cart)=  0.09361515 RMS(Int)=  0.17455243
 Iteration  4 RMS(Cart)=  0.09356845 RMS(Int)=  0.05910279
 Iteration  5 RMS(Cart)=  0.04785491 RMS(Int)=  0.00001881
 Iteration  6 RMS(Cart)=  0.00002413 RMS(Int)=  0.00000000
 Iteration  7 RMS(Cart)=  0.00000000 RMS(Int)=  0.00000000
 ClnCor:  largest displacement from symmetrization is 4.62D-15 for atom     3.
 Variable       Old X    -DE/DX   Delta X   Delta X   Delta X     New X
                                 (Linear)    (Quad)   (Total)
    R1        2.16534   0.02256   0.01425   0.00208   0.01633   2.18167
    R2        6.81173  -0.00006  -0.97473   0.07313  -0.90160   5.91013
    A1        2.13236  -0.00001   0.10653  -0.00794   0.09859   2.23095
         Item               Value     Threshold  Converged?
 Maximum Force            0.022557     0.000450     NO 
 RMS     Force            0.013023     0.000300     NO 
 Maximum Displacement     0.402860     0.001800     NO 
 RMS     Displacement     0.392263     0.001200     NO 
 Predicted change in Energy=-3.894926D-05
 GradGradGradGradGradGradGradGradGradGradGradGradGradGradGradGradGradGrad

                          Input orientation:                          
 ---------------------------------------------------------------------
 Center     Atomic      Atomic             Coordinates (Angstroms)
 Number     Number       Type             X           Y           Z
 ---------------------------------------------------------------------
      1          6           0       -2.615666   -0.583428    0.000000
      2          8           0       -1.468209   -0.710679    0.000000
      3          1           0        0.710304    1.533286    0.000000
 ---------------------------------------------------------------------
                    Distance matrix (angstroms):
                    1          2          3
     1  C    0.000000
     2  O    1.154491   0.000000
     3  H    3.942405   3.127507   0.000000
 Stoichiometry    CHO(2)
 Framework group  CS[SG(CHO)]
 Deg. of freedom     3
 Full point group                 CS      NOp   2
 Largest Abelian subgroup         CS      NOp   2
 Largest concise Abelian subgroup C1      NOp   1
                         Standard orientation:                         
 ---------------------------------------------------------------------
 Center     Atomic      Atomic             Coordinates (Angstroms)
 Number     Number       Type             X           Y           Z
 ---------------------------------------------------------------------
      1          6           0        0.164694   -0.820555    0.000000
      2          8           0        0.164694    0.333936    0.000000
      3          1           0       -2.305719    2.251841    0.000000
 ---------------------------------------------------------------------
 Rotational constants (GHZ):         164.5757438          28.6048005          24.3692051
 Standard basis: 6-31G (6D, 7F)
 There are    16 symmetry adapted cartesian basis functions of A'  symmetry.
 There are     4 symmetry adapted cartesian basis functions of A"  symmetry.
 There are    16 symmetry adapted basis functions of A'  symmetry.
 There are     4 symmetry adapted basis functions of A"  symmetry.
    20 basis functions,    48 primitive gaussians,    20 cartesian basis functions
     8 alpha electrons        7 beta electrons
       nuclear repulsion energy        24.1604429511 Hartrees.
 NAtoms=    3 NActive=    3 NUniq=    3 SFac= 1.00D+00 NAtFMM=   60 NAOKFM=F Big=F
 Integral buffers will be    131072 words long.
 Raffenetti 2 integral format.
 Two-electron integral symmetry is turned on.
 One-electron integrals computed using PRISM.
 NBasis=    20 RedAO= T EigKep=  2.32D-02  NBF=    16     4
 NBsUse=    20 1.00D-06 EigRej= -1.00D+00 NBFU=    16     4
 Lowest energy guess from the checkpoint file:  "C:\Calculation\transition states\optCO1H1.chk"
 B after Tr=     0.000000    0.000000    0.000000
         Rot=    0.999612    0.000000    0.000000   -0.027850 Ang=  -3.19 deg.
 B after Tr=     0.000000    0.000000    0.000000
         Rot=    0.999258    0.000000    0.000000    0.038515 Ang=   4.41 deg.
 Initial guess orbital symmetries:
 Alpha Orbitals:
       Occupied  (A') (A') (A') (A') (A') (A") (A') (A')
       Virtual   (A') (A') (A') (A') (A') (A") (A') (A') (A") (A")
                 (A") (A")
 Beta  Orbitals:
       Occupied  (A') (A') (A') (A') (A") (A') (A')
       Virtual   (A') (A') (A') (A') (A") (A') (A') (A") (A") (A")
                 (A") (A") (A")
 Initial guess <Sx>= 0.0000 <Sy>= 0.0000 <Sz>= 0.5000 <S**2>= 0.7500 S= 0.5000
 Keep R1 and R2 ints in memory in symmetry-blocked form, NReq=889709.
 Requested convergence on RMS density matrix=1.00D-08 within 128 cycles.
 Requested convergence on MAX density matrix=1.00D-06.
 Requested convergence on             energy=1.00D-06.
 No special actions if energy rises.
 Integral accuracy reduced to 1.0D-05 until final iterations.
 An orbital has undefined symmetry, so N**3 symmetry is turned off.
 Initial convergence to 1.0D-05 achieved.  Increase integral accuracy.
 SCF Done:  E(UB3LYP) =  -113.759509398     A.U. after   12 cycles
            NFock= 12  Conv=0.18D-08     -V/T= 2.0055
 <Sx>= 0.0000 <Sy>= 0.0000 <Sz>= 0.5000 <S**2>= 0.7500 S= 0.5000
 <L.S>= 0.000000000000E+00
 Annihilation of the first spin contaminant:
 S**2 before annihilation     0.7500,   after     0.7500
 Calling FoFJK, ICntrl=      2127 FMM=F ISym2X=1 I1Cent= 0 IOpClX= 1 NMat=1 NMatS=1 NMatT=0.
 ***** Axes restored to original set *****
 -------------------------------------------------------------------
 Center     Atomic                   Forces (Hartrees/Bohr)
 Number     Number              X              Y              Z
 -------------------------------------------------------------------
      1        6          -0.003727489    0.000418290    0.000000000
      2        8           0.003695017   -0.000455214    0.000000000
      3        1           0.000032472    0.000036924    0.000000000
 -------------------------------------------------------------------
 Cartesian Forces:  Max     0.003727489 RMS     0.001761689

 GradGradGradGradGradGradGradGradGradGradGradGradGradGradGradGradGradGrad
 Berny optimization.
 Using GEDIIS/GDIIS optimizer.
 FormGI is forming the generalized inverse of G from B-inverse, IUseBI=4.
 Internal  Forces:  Max     0.003751061 RMS     0.002165871
 Search for a local minimum.
 Step number   8 out of a maximum of   20
 All quantities printed in internal units (Hartrees-Bohrs-Radians)
 Mixed Optimization -- RFO/linear search
 Update second derivatives using D2CorX and points    6    8
 DE= -2.00D-04 DEPred=-3.89D-05 R= 5.13D+00
 TightC=F SS=  1.41D+00  RLast= 7.02D-01 DXNew= 1.8214D+00 2.1049D+00
 Trust test= 5.13D+00 RLast= 7.02D-01 DXMaxT set to 1.82D+00
 The second derivative matrix:
                          R1        R2        A1
           R1           2.50630
           R2           0.01500   0.00291
           A1           0.00529   0.01730   0.15776
 ITU=  1 -1  1  1
 Use linear search instead of GDIIS.
     Eigenvalues ---    0.00092   0.15965   2.50640
 RFO step:  Lambda=-6.88958635D-06 EMin= 9.18599027D-04
 Quartic linear search produced a step of  0.03966.
 Iteration  1 RMS(Cart)=  0.02058746 RMS(Int)=  0.00001621
 Iteration  2 RMS(Cart)=  0.00001361 RMS(Int)=  0.00000000
 Iteration  3 RMS(Cart)=  0.00000000 RMS(Int)=  0.00000000
 ClnCor:  largest displacement from symmetrization is 3.02D-15 for atom     3.
 Variable       Old X    -DE/DX   Delta X   Delta X   Delta X     New X
                                 (Linear)    (Quad)   (Total)
    R1        2.18167   0.00375  -0.00028   0.00151   0.00123   2.18290
    R2        5.91013   0.00005   0.02766   0.01882   0.04648   5.95661
    A1        2.23095  -0.00001  -0.00302  -0.00220  -0.00522   2.22573
         Item               Value     Threshold  Converged?
 Maximum Force            0.003751     0.000450     NO 
 RMS     Force            0.002166     0.000300     NO 
 Maximum Displacement     0.021088     0.001800     NO 
 RMS     Displacement     0.020582     0.001200     NO 
 Predicted change in Energy=-3.137797D-06
 GradGradGradGradGradGradGradGradGradGradGradGradGradGradGradGradGradGrad

                          Input orientation:                          
 ---------------------------------------------------------------------
 Center     Atomic      Atomic             Coordinates (Angstroms)
 Number     Number       Type             X           Y           Z
 ---------------------------------------------------------------------
      1          6           0       -2.621240   -0.585527    0.000000
      2          8           0       -1.473794   -0.718642    0.000000
      3          1           0        0.721463    1.543350    0.000000
 ---------------------------------------------------------------------
                    Distance matrix (angstroms):
                    1          2          3
     1  C    0.000000
     2  O    1.155142   0.000000
     3  H    3.963052   3.152104   0.000000
 Stoichiometry    CHO(2)
 Framework group  CS[SG(CHO)]
 Deg. of freedom     3
 Full point group                 CS      NOp   2
 Largest Abelian subgroup         CS      NOp   2
 Largest concise Abelian subgroup C1      NOp   1
                         Standard orientation:                         
 ---------------------------------------------------------------------
 Center     Atomic      Atomic             Coordinates (Angstroms)
 Number     Number       Type             X           Y           Z
 ---------------------------------------------------------------------
      1          6           0        0.166660   -0.821083    0.000000
      2          8           0        0.166660    0.334059    0.000000
      3          1           0       -2.333238    2.254026    0.000000
 ---------------------------------------------------------------------
 Rotational constants (GHZ):         161.4915417          28.4354629          24.1781665
 Standard basis: 6-31G (6D, 7F)
 There are    16 symmetry adapted cartesian basis functions of A'  symmetry.
 There are     4 symmetry adapted cartesian basis functions of A"  symmetry.
 There are    16 symmetry adapted basis functions of A'  symmetry.
 There are     4 symmetry adapted basis functions of A"  symmetry.
    20 basis functions,    48 primitive gaussians,    20 cartesian basis functions
     8 alpha electrons        7 beta electrons
       nuclear repulsion energy        24.1332933796 Hartrees.
 NAtoms=    3 NActive=    3 NUniq=    3 SFac= 1.00D+00 NAtFMM=   60 NAOKFM=F Big=F
 Integral buffers will be    131072 words long.
 Raffenetti 2 integral format.
 Two-electron integral symmetry is turned on.
 One-electron integrals computed using PRISM.
 NBasis=    20 RedAO= T EigKep=  2.33D-02  NBF=    16     4
 NBsUse=    20 1.00D-06 EigRej= -1.00D+00 NBFU=    16     4
 Initial guess from the checkpoint file:  "C:\Calculation\transition states\optCO1H1.chk"
 B after Tr=     0.000000    0.000000    0.000000
         Rot=    0.999998    0.000000    0.000000   -0.001933 Ang=  -0.22 deg.
 Initial guess orbital symmetries:
 Alpha Orbitals:
       Occupied  (A') (A') (A') (A') (A') (A") (A') (A')
       Virtual   (A") (A') (A') (A') (A") (A') (A') (A') (A') (A")
                 (A') (A')
 Beta  Orbitals:
       Occupied  (A') (A') (A') (A') (A') (A") (A')
       Virtual   (A') (A") (A') (A') (A') (A") (A') (A') (A') (A')
                 (A") (A') (A')
 Initial guess <Sx>= 0.0000 <Sy>= 0.0000 <Sz>= 0.5000 <S**2>= 0.7500 S= 0.5000
 ExpMin= 1.61D-01 ExpMax= 5.48D+03 ExpMxC= 8.25D+02 IAcc=3 IRadAn=         5 AccDes= 0.00D+00
 Harris functional with IExCor=  402 and IRadAn=       5 diagonalized for initial guess.
 HarFok:  IExCor=  402 AccDes= 0.00D+00 IRadAn=         5 IDoV= 1 UseB2=F ITyADJ=14
 ICtDFT=  3500011 ScaDFX=  1.000000  1.000000  1.000000  1.000000
 FoFCou: FMM=F IPFlag=           0 FMFlag=      100000 FMFlg1=           0
         NFxFlg=           0 DoJE=T BraDBF=F KetDBF=T FulRan=T
         wScrn=  0.000000 ICntrl=       500 IOpCl=  0 I1Cent=   200000004 NGrid=           0
         NMat0=    1 NMatS0=      1 NMatT0=    0 NMatD0=    1 NMtDS0=    0 NMtDT0=    0
 Petite list used in FoFCou.
 Keep R1 and R2 ints in memory in symmetry-blocked form, NReq=889709.
 Requested convergence on RMS density matrix=1.00D-08 within 128 cycles.
 Requested convergence on MAX density matrix=1.00D-06.
 Requested convergence on             energy=1.00D-06.
 No special actions if energy rises.
 Integral accuracy reduced to 1.0D-05 until final iterations.
 Initial convergence to 1.0D-05 achieved.  Increase integral accuracy.
 SCF Done:  E(UB3LYP) =  -113.759515131     A.U. after   10 cycles
            NFock= 10  Conv=0.87D-08     -V/T= 2.0055
 <Sx>= 0.0000 <Sy>= 0.0000 <Sz>= 0.5000 <S**2>= 0.7500 S= 0.5000
 <L.S>= 0.000000000000E+00
 Annihilation of the first spin contaminant:
 S**2 before annihilation     0.7500,   after     0.7500
 Calling FoFJK, ICntrl=      2127 FMM=F ISym2X=1 I1Cent= 0 IOpClX= 1 NMat=1 NMatS=1 NMatT=0.
 ***** Axes restored to original set *****
 -------------------------------------------------------------------
 Center     Atomic                   Forces (Hartrees/Bohr)
 Number     Number              X              Y              Z
 -------------------------------------------------------------------
      1        6          -0.002352080    0.000277940    0.000000000
      2        8           0.002331265   -0.000303221    0.000000000
      3        1           0.000020815    0.000025281    0.000000000
 -------------------------------------------------------------------
 Cartesian Forces:  Max     0.002352080 RMS     0.001112422

 GradGradGradGradGradGradGradGradGradGradGradGradGradGradGradGradGradGrad
 Berny optimization.
 Using GEDIIS/GDIIS optimizer.
 FormGI is forming the generalized inverse of G from B-inverse, IUseBI=4.
 Internal  Forces:  Max     0.002368679 RMS     0.001367704
 Search for a local minimum.
 Step number   9 out of a maximum of   20
 All quantities printed in internal units (Hartrees-Bohrs-Radians)
 Mixed Optimization -- RFO/linear search
[...]
      9 vectors produced by pass  2 Test12= 1.56D-15 8.33D-09 XBig12= 6.30D-02 6.59D-02.
      9 vectors produced by pass  3 Test12= 1.56D-15 8.33D-09 XBig12= 1.91D-04 6.60D-03.
      8 vectors produced by pass  4 Test12= 1.56D-15 8.33D-09 XBig12= 2.48D-07 1.53D-04.
      6 vectors produced by pass  5 Test12= 1.56D-15 8.33D-09 XBig12= 3.41D-10 4.28D-06.
      3 vectors produced by pass  6 Test12= 1.56D-15 8.33D-09 XBig12= 2.29D-12 5.01D-07.
      1 vectors produced by pass  7 Test12= 1.56D-15 8.33D-09 XBig12= 4.19D-15 1.56D-08.
 InvSVY:  IOpt=1 It=  1 EMax= 5.55D-16
 Solved reduced A of dimension    54 with     9 vectors.
 Isotropic polarizability for W=    0.000000        9.37 Bohr**3.
 End of Minotr F.D. properties file   721 does not exist.
 End of Minotr F.D. properties file   722 does not exist.
 End of Minotr F.D. properties file   788 does not exist.

 **********************************************************************

            Population analysis using the SCF Density.

 **********************************************************************

 Orbital symmetries:
 Alpha Orbitals:
       Occupied  (A') (A') (A') (A') (A') (A") (A') (A')
       Virtual   (A") (A') (A') (A') (A") (A') (A') (A') (A') (A")
                 (A') (A')
 Beta  Orbitals:
       Occupied  (A') (A') (A') (A') (A') (A") (A')
       Virtual   (A') (A") (A') (A') (A') (A") (A') (A') (A') (A')
                 (A") (A') (A')
 The electronic state is 2-A'.
 Alpha  occ. eigenvalues --  -19.26583 -10.32945  -1.18965  -0.56966  -0.47445
 Alpha  occ. eigenvalues --   -0.47432  -0.37285  -0.31350
 Alpha virt. eigenvalues --   -0.04157  -0.04157   0.25588   0.50777   0.50867
 Alpha virt. eigenvalues --    0.58486   0.69855   0.73449   0.88649   0.91013
 Alpha virt. eigenvalues --    0.93026   1.55700
  Beta  occ. eigenvalues --  -19.26577 -10.32943  -1.18960  -0.56954  -0.47439
  Beta  occ. eigenvalues --   -0.47430  -0.37271
  Beta virt. eigenvalues --   -0.04306  -0.04155  -0.02876   0.25663   0.50859
  Beta virt. eigenvalues --    0.50865   0.58545   0.73122   0.86307   0.90068
  Beta virt. eigenvalues --    0.90997   1.05331   1.55691
          Condensed to atoms (all electrons):
               1          2          3
     1  C    5.425955   0.359692   0.000299
     2  O    0.359692   7.853703   0.000442
     3  H    0.000299   0.000442   0.999476
          Atomic-Atomic Spin Densities.
               1          2          3
     1  C    0.001392  -0.000770   0.000214
     2  O   -0.000770   0.001587  -0.000402
     3  H    0.000214  -0.000402   0.998938
 Mulliken charges and spin densities:
               1          2
     1  C    0.214054   0.000836
     2  O   -0.213837   0.000415
     3  H   -0.000218   0.998750
 Sum of Mulliken charges =   0.00000   1.00000
 Mulliken charges and spin densities with hydrogens summed into heavy atoms:
               1          2
     1  C    0.214054   0.000836
     2  O   -0.214054   0.999164
 APT charges:
               1
     1  C    0.248457
     2  O   -0.249241
     3  H    0.000784
 Sum of APT charges =   0.00000
 APT charges with hydrogens summed into heavy atoms:
               1
     1  C    0.248457
     2  O   -0.248457
 Electronic spatial extent (au):  <R**2>=             84.8319
 Charge=              0.0000 electrons
 Dipole moment (field-independent basis, Debye):
    X=              0.0001    Y=             -0.1289    Z=              0.0000  Tot=              0.1289
 Quadrupole moment (field-independent basis, Debye-Ang):
   XX=            -11.2164   YY=            -13.8118   ZZ=            -11.2234
   XY=             -0.0273   XZ=              0.0000   YZ=              0.0000
 Traceless Quadrupole moment (field-independent basis, Debye-Ang):
   XX=              0.8675   YY=             -1.7280   ZZ=              0.8605
   XY=             -0.0273   XZ=              0.0000   YZ=              0.0000
 Octapole moment (field-independent basis, Debye-Ang**2):
  XXX=              4.0644  YYY=              2.9478  ZZZ=              0.0000  XYY=              0.8980
  XXY=             -0.2378  XXZ=              0.0000  XZZ=              1.3639  YZZ=             -0.2586
  YYZ=              0.0000  XYZ=              0.0000
 Hexadecapole moment (field-independent basis, Debye-Ang**3):
 XXXX=            -55.1448 YYYY=            -81.0094 ZZZZ=             -9.3324 XXXY=             22.0472
 XXXZ=              0.0000 YYYX=             22.6942 YYYZ=              0.0000 ZZZX=              0.0000
 ZZZY=              0.0000 XXYY=            -21.8874 XXZZ=            -10.7588 YYZZ=            -14.2277
 XXYZ=              0.0000 YYXZ=              0.0000 ZZXY=              7.3727
 N-N= 2.407817451739D+01 E-N=-3.148852970245D+02  KE= 1.131296402753D+02
 Symmetry A'   KE= 1.090702993556D+02
 Symmetry A"   KE= 4.059340919660D+00
 Symmetry A'   SP= 1.000000000000D+00
 Symmetry A"   SP= 3.086367831228D-16
  Exact polarizability:       7.547      -0.177      13.205       0.000       0.000       7.371
 Approx polarizability:       9.366      -0.158      26.233       0.000       0.000       9.202
                          Isotropic Fermi Contact Couplings
        Atom                 a.u.       MegaHertz       Gauss      10(-4) cm-1
     1  C(13)              0.00004       0.04053       0.01446       0.01352
     2  O(17)              0.00407      -2.46850      -0.88082      -0.82340
     3  H(1)               0.30111    1345.92634     480.25999     448.95270
 --------------------------------------------------------
       Center         ----  Spin Dipole Couplings  ----
                      3XX-RR        3YY-RR        3ZZ-RR
 --------------------------------------------------------
     1   Atom        0.001445      0.001813     -0.003258
     2   Atom        0.004550      0.001994     -0.006544
     3   Atom       -0.000002      0.000003     -0.000001
 --------------------------------------------------------
                        XY            XZ            YZ
 --------------------------------------------------------
     1   Atom       -0.001935      0.000000      0.000000
     2   Atom       -0.009640      0.000000      0.000000
     3   Atom       -0.000002      0.000000      0.000000
 --------------------------------------------------------


 ---------------------------------------------------------------------------------
              Anisotropic Spin Dipole Couplings in Principal Axis System
 ---------------------------------------------------------------------------------

       Atom             a.u.   MegaHertz   Gauss  10(-4) cm-1        Axes

              Baa    -0.0033    -0.437    -0.156    -0.146  0.0000  0.0000  1.0000
     1 C(13)  Bbb    -0.0003    -0.042    -0.015    -0.014  0.7398  0.6729  0.0000
              Bcc     0.0036     0.479     0.171     0.160 -0.6729  0.7398  0.0000
 
              Baa    -0.0065     0.474     0.169     0.158  0.0000  0.0000  1.0000
     2 O(17)  Bbb    -0.0065     0.467     0.167     0.156  0.6590  0.7521  0.0000
              Bcc     0.0130    -0.940    -0.336    -0.314  0.7521 -0.6590  0.0000
 
              Baa     0.0000    -0.001     0.000     0.000  0.9552  0.2958  0.0000
     3 H(1)   Bbb     0.0000    -0.001     0.000     0.000  0.0000  0.0000  1.0000
              Bcc     0.0000     0.002     0.001     0.001 -0.2958  0.9552  0.0000
 

 ---------------------------------------------------------------------------------

 Calling FoFJK, ICntrl=    100127 FMM=F ISym2X=1 I1Cent= 0 IOpClX= 1 NMat=1 NMatS=1 NMatT=0.
 Full mass-weighted force constant matrix:
 Low frequencies ---   -0.0004    0.0008    0.0008    2.8754    7.8575   14.5237
 Low frequencies ---   20.2523   90.4167 2066.0618
 Diagonal vibrational polarizability:
        2.7592757       0.4497057       0.0000000
 Harmonic frequencies (cm**-1), IR intensities (KM/Mole), Raman scattering
 activities (A**4/AMU), depolarization ratios for plane and unpolarized
 incident light, reduced masses (AMU), force constants (mDyne/A),
 and normal coordinates:
                      1                      2                      3
                     A'                     A'                     A'
 Frequencies --     19.7398                90.4018              2066.0618
 Red. masses --      2.1539                 1.0520                13.4387
 Frc consts  --      0.0005                 0.0051                33.7982
 IR Inten    --      0.0396                 0.0099                69.6720
  Atom  AN      X      Y      Z        X      Y      Z        X      Y      Z
     1   6     0.22  -0.03   0.00    -0.01   0.02   0.00     0.00   0.80   0.00
     2   8    -0.20  -0.03   0.00    -0.05   0.02   0.00     0.00  -0.60   0.00
     3   1     0.50   0.81   0.00     0.79  -0.62   0.00     0.00   0.00   0.00

 -------------------
 - Thermochemistry -
 -------------------
 Temperature   298.150 Kelvin.  Pressure   1.00000 Atm.
 Atom     1 has atomic number  6 and mass  12.00000
 Atom     2 has atomic number  8 and mass  15.99491
 Atom     3 has atomic number  1 and mass   1.00783
 Molecular mass:    29.00274 amu.
 Principal axes and moments of inertia in atomic units:
                           1         2         3
     Eigenvalues --    11.67779  64.32372  76.00151
           X           -0.46267   0.88653   0.00000
           Y            0.88653   0.46267   0.00000
           Z            0.00000   0.00000   1.00000
 This molecule is an asymmetric top.
 Rotational symmetry number  1.
 Rotational temperatures (Kelvin)      7.41698     1.34653     1.13963
 Rotational constants (GHZ):         154.54474    28.05717    23.74612
 Zero-point vibrational energy      13016.6 (Joules/Mol)
                                    3.11104 (Kcal/Mol)
 Warning -- explicit consideration of   2 degrees of freedom as
           vibrations may cause significant error
 Vibrational temperatures:     28.40   130.07  2972.60
          (Kelvin)
 
 Zero-point correction=                           0.004958 (Hartree/Particle)
 Thermal correction to Energy=                    0.009444
 Thermal correction to Enthalpy=                  0.010388
 Thermal correction to Gibbs Free Energy=        -0.021162
 Sum of electronic and zero-point Energies=           -113.754562
 Sum of electronic and thermal Energies=              -113.750076
 Sum of electronic and thermal Enthalpies=            -113.749131
 Sum of electronic and thermal Free Energies=         -113.780682
 
                     E (Thermal)             CV                S
                      KCal/Mol        Cal/Mol-Kelvin    Cal/Mol-Kelvin
 Total                    5.926              9.913             66.404
 Electronic               0.000              0.000              1.377
 Translational            0.889              2.981             36.028
 Rotational               0.889              2.981             18.685
 Vibrational              4.149              3.951             10.313
 Vibration     1          0.593              1.986              6.660
 Vibration     2          0.602              1.956              3.651
                       Q            Log10(Q)             Ln(Q)
 Total Bot       0.542067D+10          9.734053         22.413485
 Total V=0       0.103386D+13         12.014461         27.664318
 Vib (Bot)       0.163225D+00         -0.787212         -1.812623
 Vib (Bot)    1  0.104938D+02          1.020934          2.350787
 Vib (Bot)    2  0.227419D+01          0.356826          0.821622
 Vib (V=0)       0.311312D+02          1.493196          3.438210
 Vib (V=0)    1  0.110057D+02          1.041619          2.398416
 Vib (V=0)    2  0.282850D+01          0.451556          1.039747
 Electronic      0.200000D+01          0.301030          0.693147
 Translational   0.613921D+07          6.788112         15.630206
 Rotational      0.270472D+04          3.432123          7.902754
 ***** Axes restored to original set *****
 -------------------------------------------------------------------
 Center     Atomic                   Forces (Hartrees/Bohr)
 Number     Number              X              Y              Z
 -------------------------------------------------------------------
      1        6           0.000012622    0.000003586    0.000000000
      2        8          -0.000009382   -0.000004760    0.000000000
      3        1          -0.000003240    0.000001174    0.000000000
 -------------------------------------------------------------------
 Cartesian Forces:  Max     0.000012622 RMS     0.000005723
 FormGI is forming the generalized inverse of G from B-inverse, IUseBI=4.

 GradGradGradGradGradGradGradGradGradGradGradGradGradGradGradGradGradGrad
 Berny optimization.
 Internal  Forces:  Max     0.000012658 RMS     0.000009985
 Search for a local minimum.
 Step number   1 out of a maximum of    2
 All quantities printed in internal units (Hartrees-Bohrs-Radians)
 Second derivative matrix not updated -- analytic derivatives used.
 The second derivative matrix:
                          R1        R2        A1
           R1           1.10760
           R2           0.00013   0.00030
           A1           0.00006   0.00003   0.00017
 ITU=  0
     Eigenvalues ---    0.00017   0.00031   1.10760
 Angle between quadratic step and forces=  43.22 degrees.
 Linear search not attempted -- first point.
 Iteration  1 RMS(Cart)=  0.06210807 RMS(Int)=  0.00235435
 Iteration  2 RMS(Cart)=  0.00193894 RMS(Int)=  0.00000044
 Iteration  3 RMS(Cart)=  0.00000060 RMS(Int)=  0.00000000
 ClnCor:  largest displacement from symmetrization is 2.22D-15 for atom     3.
 Variable       Old X    -DE/DX   Delta X   Delta X   Delta X     New X
                                 (Linear)    (Quad)   (Total)
    R1        2.18503  -0.00001   0.00000  -0.00001  -0.00001   2.18502
    R2        6.06573   0.00000   0.00000   0.00238   0.00238   6.06811
    A1        2.21313  -0.00001   0.00000  -0.07399  -0.07399   2.13914
         Item               Value     Threshold  Converged?
 Maximum Force            0.000013     0.000450     YES
 RMS     Force            0.000010     0.000300     YES
 Maximum Displacement     0.069444     0.001800     NO 
 RMS     Displacement     0.062783     0.001200     NO 
 Predicted change in Energy=-4.664901D-07
                           ----------------------------
                           ! Non-Optimized Parameters !
                           ! (Angstroms and Degrees)  !
 --------------------------                            --------------------------
 ! Name  Definition              Value          Derivative Info.                !
 --------------------------------------------------------------------------------
 ! R1    R(1,2)                  1.1563         -DE/DX =    0.0                 !
 ! R2    R(2,3)                  3.2111         -DE/DX =    0.0                 !
 ! A1    A(1,2,3)              122.5635         -DE/DX =    0.0                 !
 --------------------------------------------------------------------------------
 GradGradGradGradGradGradGradGradGradGradGradGradGradGradGradGradGradGrad


 ----------------------------------------------------------------------

 Electric dipole moment (input orientation):
 (Debye = 10**-18 statcoulomb cm , SI units = C m)
                  (au)            (Debye)         (10**-30 SI)
   Tot        0.507203D-01      0.128918D+00      0.430025D+00
   x         -0.503123D-01     -0.127881D+00     -0.426565D+00
   y          0.642053D-02      0.163193D-01      0.544355D-01
   z          0.000000D+00      0.000000D+00      0.000000D+00

 Dipole polarizability, Alpha (input orientation).
 (esu units = cm**3 , SI units = C**2 m**2 J**-1)
 Alpha(0;0):
               (au)            (10**-24 esu)      (10**-40 SI)
   iso        0.937432D+01      0.138913D+01      0.154562D+01
   aniso      0.575571D+01      0.852908D+00      0.948988D+00
   xx         0.131576D+02      0.194976D+01      0.216940D+01
   yx        -0.543251D+00     -0.805016D-01     -0.895701D-01
   yy         0.759408D+01      0.112533D+01      0.125209D+01
   zx         0.000000D+00      0.000000D+00      0.000000D+00
   zy         0.000000D+00      0.000000D+00      0.000000D+00
   zz         0.737123D+01      0.109230D+01      0.121535D+01

 ----------------------------------------------------------------------

 Dipole orientation:
     6         -0.21981635         -1.72251646          4.79617838
     8         -0.22002520         -1.72415302          2.61114975
     1          0.39444002          3.09089567         -1.02627045

 Electric dipole moment (dipole orientation):
 (Debye = 10**-18 statcoulomb cm , SI units = C m)
                  (au)            (Debye)         (10**-30 SI)
   Tot        0.507203D-01      0.128918D+00      0.430025D+00
   x          0.000000D+00      0.000000D+00      0.000000D+00
   y          0.000000D+00      0.000000D+00      0.000000D+00
   z          0.507203D-01      0.128918D+00      0.430025D+00

 Dipole polarizability, Alpha (dipole orientation).
 (esu units = cm**3 , SI units = C**2 m**2 J**-1)
 Alpha(0;0):
               (au)            (10**-24 esu)      (10**-40 SI)
   iso        0.937432D+01      0.138913D+01      0.154562D+01
   aniso      0.575571D+01      0.852908D+00      0.948988D+00
   xx         0.737404D+01      0.109272D+01      0.121582D+01
   yx         0.220463D-01      0.326693D-02      0.363495D-02
   yy         0.754399D+01      0.111790D+01      0.124384D+01
   zx        -0.218703D-01     -0.324084D-02     -0.360592D-02
   zy        -0.171379D+00     -0.253957D-01     -0.282566D-01
   zz         0.132049D+02      0.195677D+01      0.217720D+01

 ----------------------------------------------------------------------
 Unable to Open any file for archive entry.
 1|1|UNPC-TABISEAL|Freq|UB3LYP|6-31G|C1H1O1(2)|17108|12-Jun-2023|0||#N 
 Geom=AllCheck Guess=TCheck SCRF=Check GenChk UB3LYP/6-31G Freq||Title 
 Card Required||0,2|C,-2.6339329849,-0.5902352822,0.|O,-1.4870777164,-0
 .7374696317,0.|H,0.7474388113,1.5668848639,0.||Version=EM64W-G16RevC.0
 1|State=2-A'|HF=-113.7595195|S2=0.750003|S2-1=0.|S2A=0.75|RMSD=9.786e-
 010|RMSF=5.723e-006|ZeroPoint=0.0049578|Thermal=0.0094438|ETot=-113.75
 00757|HTot=-113.7491315|GTot=-113.780682|Dipole=-0.0503123,0.0064205,0
 .|DipoleDeriv=0.6887683,-0.0835062,0.,-0.085791,0.0334041,0.,0.,0.,0.0
 231984,-0.6901793,0.0823207,0.,0.0845033,-0.0343534,0.,0.,0.,-0.023191
 3,0.001411,0.0011855,0.,0.0012877,0.0009494,0.,0.,0.,-0.0000072|Polar=
 13.1576484,-0.5432515,7.5940774,0.,0.,7.3712269|Quadrupole=-1.248281,0
 .6085396,0.6397415,0.2633356,0.,0.|PG=CS [SG(C1H1O1)]|NImag=0||1.08964
 491,-0.13986095,0.01799093,0.,0.,0.00000223,-1.08954628,0.13986475,0.,
 1.08960849,0.13994565,-0.01800437,0.,-0.13980652,0.01816502,0.,0.,-0.0
 0000162,0.,0.,0.00000865,-0.00009862,-0.00000380,0.,-0.00006221,-0.000
 13913,0.,0.00016083,-0.00008470,0.00001345,0.,-0.00005823,-0.00016065,
 0.,0.00014293,0.00014721,0.,0.,-0.00000061,0.,0.,-0.00000702,0.,0.,0.0
 0000763||-0.00001262,-0.00000359,0.,0.00000938,0.00000476,0.,0.0000032
 4,-0.00000117,0.|||@
 The archive entry for this job was punched.


      LET US REMEMBER, PLEASE, THAT THE SEARCH FOR THE CONSTITUTION
      OF THE WORLD IS ONE OF THE GREATEST AND NOBLEST PROBLEMS PRESENTED 
      BY NATURE.

                                                  -- GALILEO
 Job cpu time:       0 days  0 hours  0 minutes 10.0 seconds.
 Elapsed time:       0 days  0 hours  0 minutes  4.5 seconds.
 File lengths (MBytes):  RWF=      6 Int=      0 D2E=      0 Chk=      1 Scr=      1
 Normal termination of Gaussian 16 at Mon Jun 12 17:07:11 2023.
