 Entering Link 1 = C:\G16W\l1.exe PID=      9160.
  
 Copyright (c) 1988-2019, Gaussian, Inc.  All Rights Reserved.
  
 This is part of the Gaussian(R) 16 program.  It is based on
 the Gaussian(R) 09 system (copyright 2009, Gaussian, Inc.),
 the Gaussian(R) 03 system (copyright 2003, Gaussian, Inc.),
 the Gaussian(R) 98 system (copyright 1998, Gaussian, Inc.),
 the Gaussian(R) 94 system (copyright 1995, Gaussian, Inc.),
 the Gaussian 92(TM) system (copyright 1992, Gaussian, Inc.),
 the Gaussian 90(TM) system (copyright 1990, Gaussian, Inc.),
 the Gaussian 88(TM) system (copyright 1988, Gaussian, Inc.),
 the Gaussian 86(TM) system (copyright 1986, Carnegie Mellon
 University), and the Gaussian 82(TM) system (copyright 1983,
 Carnegie Mellon University). Gaussian is a federally registered
 trademark of Gaussian, Inc.
  
 This software contains proprietary and confidential information,
 including trade secrets, belonging to Gaussian, Inc.
  
 This software is provided under written license and may be
 used, copied, transmitted, or stored only in accord with that
 written license.
  
 The following legend is applicable only to US Government
 contracts under FAR:
  
                    RESTRICTED RIGHTS LEGEND
  
 Use, reproduction and disclosure by the US Government is
 subject to restrictions as set forth in subparagraphs (a)
 and (c) of the Commercial Computer Software - Restricted
 Rights clause in FAR 52.227-19.
  
 Gaussian, Inc.
 340 Quinnipiac St., Bldg. 40, Wallingford CT 06492
  
  
 ---------------------------------------------------------------
 Warning -- This program may not be used in any manner that
 competes with the business of Gaussian, Inc. or will provide
 assistance to any competitor of Gaussian, Inc.  The licensee
 of this program is prohibited from giving any competitor of
 Gaussian, Inc. access to this program.  By using this program,
 the user acknowledges that Gaussian, Inc. is engaged in the
 business of creating and licensing software in the field of
 computational chemistry and represents and warrants to the
 licensee that it is not a competitor of Gaussian, Inc. and that
 it will not use this program in any manner prohibited above.
 ---------------------------------------------------------------
  

 Cite this work as:
 Gaussian 16, Revision C.01,
 M. J. Frisch, G. W. Trucks, H. B. Schlegel, G. E. Scuseria, 
 M. A. Robb, J. R. Cheeseman, G. Scalmani, V. Barone, 
 G. A. Petersson, H. Nakatsuji, X. Li, M. Caricato, A. V. Marenich, 
 J. Bloino, B. G. Janesko, R. Gomperts, B. Mennucci, H. P. Hratchian, 
 J. V. Ortiz, A. F. Izmaylov, J. L. Sonnenberg, D. Williams-Young, 
 F. Ding, F. Lipparini, F. Egidi, J. Goings, B. Peng, A. Petrone, 
 T. Henderson, D. Ranasinghe, V. G. Zakrzewski, J. Gao, N. Rega, 
 G. Zheng, W. Liang, M. Hada, M. Ehara, K. Toyota, R. Fukuda, 
 J. Hasegawa, M. Ishida, T. Nakajima, Y. Honda, O. Kitao, H. Nakai, 
 T. Vreven, K. Throssell, J. A. Montgomery, Jr., J. E. Peralta, 
 F. Ogliaro, M. J. Bearpark, J. J. Heyd, E. N. Brothers, K. N. Kudin, 
 V. N. Staroverov, T. A. Keith, R. Kobayashi, J. Normand, 
 K. Raghavachari, A. P. Rendell, J. C. Burant, S. S. Iyengar, 
 J. Tomasi, M. Cossi, J. M. Millam, M. Klene, C. Adamo, R. Cammi, 
 J. W. Ochterski, R. L. Martin, K. Morokuma, O. Farkas, 
 J. B. Foresman, and D. J. Fox, Gaussian, Inc., Wallingford CT, 2019.
 
 ******************************************
 Gaussian 16:  EM64W-G16RevC.01 30-May-2019
                13-Jun-2023 
 ******************************************
 %chk=C:\Calculation\transition states\CO(1)H(1)aug-cc-pvdz.chk
 ---------------------------------------------------
 # opt=qst2 freq b3lyp/aug-cc-pvdz geom=connectivity
 ---------------------------------------------------
 1/5=1,18=20,26=3,27=202,38=1,57=2/1,3;
 2/9=110,12=2,17=6,18=5,40=1/2;
 3/5=16,7=10,11=2,25=1,30=1,71=1,74=-5/1,2,3;
 4//1;
 5/5=2,38=5/2;
 6/7=2,8=2,9=2,10=2,28=1/1;
 7//1,2,3,16;
 1/5=1,18=20,26=3,27=202/3(2);
 2/9=110/2;
 99//99;
 2/9=110/2;
 3/5=16,7=10,11=2,25=1,30=1,71=1,74=-5/1,2,3;
 4/5=5,16=3,69=1/1;
 5/5=2,38=5/2;
 7//1,2,3,16;
 1/5=1,18=20,26=3,27=202/3(-5);
 2/9=110/2;
 6/7=2,8=2,9=2,10=2,19=2,28=1/1;
 99/9=1/99;
 -------------------
 Title Card Required
 -------------------
 Symbolic Z-matrix:
 Charge =  0 Multiplicity = 2
 C                     0.20027  -0.97527   0. 
 O                     0.20027   0.15877   0. 
 H                    -2.80376   4.58143   0. 
 
 Add virtual bond connecting atoms H3         and O2         Dist= 1.01D+01.
 -------------------
 Title Card Required
 -------------------
 Symbolic Z-matrix:
 Charge =  0 Multiplicity = 2
 C                    -0.95509   0.77347   2.48472 
 O                    -0.95509   1.90751   2.48472 
 H                    -3.95912   6.33016   2.48472 
 
 Iteration  1 RMS(Cart)=  0.00000000 RMS(Int)=  0.00000000
   Var     Old X     New X   DQ Goal   DQ Act.  Rel. Err.   Overall
     1    2.1430    2.1430    0.0000    0.0000
     2   10.1032   10.1032    0.0000    0.0000
     3    2.5449    2.5449    0.0000    0.0000

 GradGradGradGradGradGradGradGradGradGradGradGradGradGradGradGradGradGrad
 Berny optimization.
 Initialization pass.
                           ----------------------------
                           !    Initial Parameters    !
                           ! (Angstroms and Degrees)  !
 --------------------------                            --------------------------
 ! Name  Definition         TS        Reactant Product Derivative Info.         !
 --------------------------------------------------------------------------------
 ! R1    R(1,2)             1.134     1.134     1.134  estimate D2E/DX2         !
 ! R2    R(2,3)             5.3464    5.3464    5.3464 estimate D2E/DX2         !
 ! A1    A(1,2,3)         145.8143  145.8143  145.8143 estimate D2E/DX2         !
 --------------------------------------------------------------------------------
 Trust Radius=3.00D-01 FncErr=1.00D-07 GrdErr=1.00D-06 EigMax=2.50D+02 EigMin=1.00D-04
 Number of steps in this run=     20 maximum allowed number of steps=    100.
 Search for a saddle point of order  1.
 GradGradGradGradGradGradGradGradGradGradGradGradGradGradGradGradGradGrad

                          Input orientation:                          
 ---------------------------------------------------------------------
 Center     Atomic      Atomic             Coordinates (Angstroms)
 Number     Number       Type             X           Y           Z
 ---------------------------------------------------------------------
      1          6           0        0.200268   -0.975267    0.000000
      2          8           0        0.200268    0.158772    0.000000
      3          1           0       -2.803758    4.581430    0.000000
 ---------------------------------------------------------------------
                    Distance matrix (angstroms):
                    1          2          3
     1  C    0.000000
     2  O    1.134039   0.000000
     3  H    6.316728   5.346408   0.000000
 Stoichiometry    CHO(2)
 Framework group  CS[SG(CHO)]
 Deg. of freedom     3
 Full point group                 CS      NOp   2
 Largest Abelian subgroup         CS      NOp   2
 Largest concise Abelian subgroup C1      NOp   1
                         Standard orientation:                         
 ---------------------------------------------------------------------
 Center     Atomic      Atomic             Coordinates (Angstroms)
 Number     Number       Type             X           Y           Z
 ---------------------------------------------------------------------
      1          6           0        0.200268   -0.975267    0.000000
      2          8           0        0.200268    0.158772    0.000000
      3          1           0       -2.803758    4.581430    0.000000
 ---------------------------------------------------------------------
 Rotational constants (GHZ):         254.9875420          12.9402537          12.3152712
 Standard basis: Aug-CC-pVDZ (5D, 7F)
 There are    43 symmetry adapted cartesian basis functions of A'  symmetry.
 There are    16 symmetry adapted cartesian basis functions of A"  symmetry.
 There are    39 symmetry adapted basis functions of A'  symmetry.
 There are    16 symmetry adapted basis functions of A"  symmetry.
    55 basis functions,    97 primitive gaussians,    59 cartesian basis functions
     8 alpha electrons        7 beta electrons
       nuclear repulsion energy        23.6927334155 Hartrees.
 NAtoms=    3 NActive=    3 NUniq=    3 SFac= 1.00D+00 NAtFMM=   60 NAOKFM=F Big=F
 Integral buffers will be    131072 words long.
 Raffenetti 2 integral format.
 Two-electron integral symmetry is turned on.
 One-electron integrals computed using PRISM.
 NBasis=    55 RedAO= T EigKep=  2.41D-03  NBF=    39    16
 NBsUse=    55 1.00D-06 EigRej= -1.00D+00 NBFU=    39    16
 ExpMin= 2.97D-02 ExpMax= 1.17D+04 ExpMxC= 4.01D+02 IAcc=3 IRadAn=         5 AccDes= 0.00D+00
 Harris functional with IExCor=  402 and IRadAn=       5 diagonalized for initial guess.
 HarFok:  IExCor=  402 AccDes= 0.00D+00 IRadAn=         5 IDoV= 1 UseB2=F ITyADJ=14
 ICtDFT=  3500011 ScaDFX=  1.000000  1.000000  1.000000  1.000000
 FoFCou: FMM=F IPFlag=           0 FMFlag=      100000 FMFlg1=           0
         NFxFlg=           0 DoJE=T BraDBF=F KetDBF=T FulRan=T
         wScrn=  0.000000 ICntrl=       500 IOpCl=  0 I1Cent=   200000004 NGrid=           0
         NMat0=    1 NMatS0=      1 NMatT0=    0 NMatD0=    1 NMtDS0=    0 NMtDT0=    0
 Petite list used in FoFCou.
 Initial guess orbital symmetries:
 Alpha Orbitals:
       Occupied  (A') (A') (A') (A') (A') (A") (A') (A')
       Virtual   (A') (A") (A') (A') (A') (A") (A') (A') (A') (A")
                 (A') (A") (A') (A') (A") (A') (A') (A") (A') (A")
                 (A') (A') (A') (A') (A') (A") (A') (A") (A') (A')
                 (A") (A') (A") (A') (A") (A') (A') (A") (A') (A')
                 (A') (A') (A") (A') (A") (A') (A')
 Beta  Orbitals:
       Occupied  (A') (A') (A') (A') (A') (A") (A')
       Virtual   (A') (A') (A") (A') (A') (A') (A") (A') (A') (A')
                 (A") (A') (A") (A') (A') (A") (A') (A') (A") (A')
                 (A") (A') (A') (A') (A') (A') (A") (A') (A") (A')
                 (A') (A") (A') (A") (A') (A") (A') (A') (A") (A')
                 (A') (A') (A') (A") (A') (A") (A') (A')
 The electronic state of the initial guess is 2-A'.
 Initial guess <Sx>= 0.0000 <Sy>= 0.0000 <Sz>= 0.5000 <S**2>= 0.7500 S= 0.5000
 Keep R1 and R2 ints in memory in symmetry-blocked form, NReq=2115463.
 Requested convergence on RMS density matrix=1.00D-08 within 128 cycles.
 Requested convergence on MAX density matrix=1.00D-06.
 Requested convergence on             energy=1.00D-06.
 No special actions if energy rises.
 SCF Done:  E(UB3LYP) =  -113.831946120     A.U. after    8 cycles
            NFock=  8  Conv=0.54D-08     -V/T= 2.0059
 <Sx>= 0.0000 <Sy>= 0.0000 <Sz>= 0.5000 <S**2>= 0.7500 S= 0.5000
 <L.S>= 0.000000000000E+00
 Annihilation of the first spin contaminant:
 S**2 before annihilation     0.7500,   after     0.7500

 **********************************************************************

            Population analysis using the SCF Density.

 **********************************************************************

 Orbital symmetries:
 Alpha Orbitals:
       Occupied  (A') (A') (A') (A') (A') (A") (A') (A')
       Virtual   (A') (A") (A') (A') (A') (A") (A') (A') (A') (A")
                 (A') (A") (A') (A') (A") (A') (A') (A") (A') (A')
                 (A') (A") (A') (A') (A') (A") (A') (A") (A') (A')
                 (A") (A') (A") (A') (A") (A') (A') (A") (A') (A')
                 (A') (A') (A") (A') (A") (A') (A')
 Beta  Orbitals:
       Occupied  (A') (A') (A') (A') (A') (A") (A')
       Virtual   (A') (A") (A') (A') (A') (A') (A") (A') (A') (A')
                 (A") (A') (A') (A") (A') (A") (A') (A') (A") (A')
                 (A') (A") (A') (A') (A') (A') (A") (A') (A") (A')
                 (A') (A") (A') (A") (A') (A') (A") (A') (A") (A')
                 (A') (A') (A') (A") (A') (A") (A') (A')
 The electronic state is 2-A'.
 Alpha  occ. eigenvalues --  -19.26316 -10.31492  -1.17643  -0.58706  -0.48323
 Alpha  occ. eigenvalues --   -0.48323  -0.38728  -0.32137
 Alpha virt. eigenvalues --   -0.04341  -0.04341   0.02110   0.04369   0.05583
 Alpha virt. eigenvalues --    0.06417   0.06732   0.14245   0.16366   0.16778
 Alpha virt. eigenvalues --    0.18229   0.18253   0.20006   0.25194   0.31010
 Alpha virt. eigenvalues --    0.31013   0.38947   0.46030   0.46043   0.55013
 Alpha virt. eigenvalues --    0.55863   0.56270   0.56920   0.69795   0.85160
 Alpha virt. eigenvalues --    0.85852   0.85853   0.96716   0.96835   1.18303
 Alpha virt. eigenvalues --    1.35967   1.35978   1.40414   1.40417   1.50514
 Alpha virt. eigenvalues --    1.50518   1.51608   1.70322   1.70401   1.87152
 Alpha virt. eigenvalues --    1.90385   2.64849   3.16078   3.16078   3.27861
 Alpha virt. eigenvalues --    3.28020   3.60921
  Beta  occ. eigenvalues --  -19.26316 -10.31492  -1.17643  -0.58706  -0.48323
  Beta  occ. eigenvalues --   -0.48323  -0.38727
  Beta virt. eigenvalues --   -0.04708  -0.04341  -0.04338   0.02747   0.05452
  Beta virt. eigenvalues --    0.06323   0.06399   0.09862   0.14939   0.16681
  Beta virt. eigenvalues --    0.16793   0.23222   0.26205   0.26210   0.27821
  Beta virt. eigenvalues --    0.31010   0.31015   0.38991   0.46024   0.46052
  Beta virt. eigenvalues --    0.55832   0.56243   0.56783   0.69775   0.75843
  Beta virt. eigenvalues --    0.85181   0.85852   0.85853   0.96705   0.96826
  Beta virt. eigenvalues --    1.18312   1.35967   1.35993   1.40414   1.40417
  Beta virt. eigenvalues --    1.70295   1.70314   1.74480   1.74496   1.74910
  Beta virt. eigenvalues --    1.87154   1.90422   2.64848   3.16078   3.16078
  Beta virt. eigenvalues --    3.27858   3.28015   3.60915
          Condensed to atoms (all electrons):
               1          2          3
     1  C    5.272141   0.593931  -0.000209
     2  O    0.593931   7.539896   0.000169
     3  H   -0.000209   0.000169   1.000180
          Atomic-Atomic Spin Densities.
               1          2          3
     1  C    0.000057  -0.000137  -0.000124
     2  O   -0.000137   0.000228   0.000038
     3  H   -0.000124   0.000038   1.000161
 Mulliken charges and spin densities:
               1          2
     1  C    0.134136  -0.000205
     2  O   -0.133997   0.000130
     3  H   -0.000140   1.000075
 Sum of Mulliken charges =   0.00000   1.00000
 Mulliken charges and spin densities with hydrogens summed into heavy atoms:
               1          2
     1  C    0.134136  -0.000205
     2  O   -0.134136   1.000205
 Electronic spatial extent (au):  <R**2>=            153.9440
 Charge=              0.0000 electrons
 Dipole moment (field-independent basis, Debye):
    X=              0.0020    Y=              0.0684    Z=              0.0000  Tot=              0.0685
 Quadrupole moment (field-independent basis, Debye-Ang):
   XX=            -11.7671   YY=            -13.8869   ZZ=            -11.7539
   XY=              0.0290   XZ=              0.0000   YZ=              0.0000
 Traceless Quadrupole moment (field-independent basis, Debye-Ang):
   XX=              0.7022   YY=             -1.4176   ZZ=              0.7154
   XY=              0.0290   XZ=              0.0000   YZ=              0.0000
 Octapole moment (field-independent basis, Debye-Ang**2):
  XXX=              5.8058  YYY=             -1.1055  ZZZ=              0.0000  XYY=              1.5745
  XXY=             -1.9668  XXZ=              0.0000  XZZ=              1.9182  YZZ=             -1.9026
  YYZ=              0.0000  XYZ=              0.0000
 Hexadecapole moment (field-independent basis, Debye-Ang**3):
 XXXX=            -81.5158 YYYY=           -236.1507 ZZZZ=            -11.7293 XXXY=             57.8522
 XXXZ=              0.0000 YYYX=             58.9616 YYYZ=              0.0000 ZZZX=              0.0000
 ZZZY=              0.0000 XXYY=            -51.8791 XXZZ=            -15.5096 YYZZ=            -39.8525
 XXYZ=              0.0000 YYXZ=              0.0000 ZZXY=             19.1980
 N-N= 2.369273341553D+01 E-N=-3.142515833661D+02  KE= 1.131675549311D+02
 Symmetry A'   KE= 1.091023363245D+02
 Symmetry A"   KE= 4.065218606667D+00
 Symmetry A'   SP= 1.000000000000D+00
 Symmetry A"   SP=-3.093497307545D-15
                          Isotropic Fermi Contact Couplings
        Atom                 a.u.       MegaHertz       Gauss      10(-4) cm-1
     1  C(13)              0.00000      -0.00381      -0.00136      -0.00127
     2  O(17)              0.00005      -0.03198      -0.01141      -0.01067
     3  H(1)               0.26735    1195.00683     426.40815     398.61137
 --------------------------------------------------------
       Center         ----  Spin Dipole Couplings  ----
                      3XX-RR        3YY-RR        3ZZ-RR
 --------------------------------------------------------
     1   Atom       -0.000198      0.000802     -0.000604
     2   Atom       -0.000058      0.001071     -0.001013
     3   Atom        0.000000     -0.000003      0.000002
 --------------------------------------------------------
                        XY            XZ            YZ
 --------------------------------------------------------
     1   Atom       -0.000718      0.000000      0.000000
     2   Atom       -0.001429      0.000000      0.000000
     3   Atom        0.000003      0.000000      0.000000
 --------------------------------------------------------


 ---------------------------------------------------------------------------------
              Anisotropic Spin Dipole Couplings in Principal Axis System
 ---------------------------------------------------------------------------------

       Atom             a.u.   MegaHertz   Gauss  10(-4) cm-1        Axes

              Baa    -0.0006    -0.081    -0.029    -0.027  0.0000  0.0000  1.0000
     1 C(13)  Bbb    -0.0006    -0.077    -0.027    -0.026  0.8866  0.4626  0.0000
              Bcc     0.0012     0.158     0.056     0.053 -0.4626  0.8866  0.0000
 
              Baa    -0.0010     0.075     0.027     0.025  0.8268  0.5624  0.0000
     2 O(17)  Bbb    -0.0010     0.073     0.026     0.024  0.0000  0.0000  1.0000
              Bcc     0.0020    -0.148    -0.053    -0.049 -0.5624  0.8268  0.0000
 
              Baa     0.0000    -0.002    -0.001    -0.001 -0.5012  0.8653  0.0000
     3 H(1)   Bbb     0.0000     0.001     0.000     0.000  0.8653  0.5012  0.0000
              Bcc     0.0000     0.001     0.000     0.000  0.0000  0.0000  1.0000
 

 ---------------------------------------------------------------------------------

 Calling FoFJK, ICntrl=      2127 FMM=F ISym2X=1 I1Cent= 0 IOpClX= 1 NMat=1 NMatS=1 NMatT=0.
 ***** Axes restored to original set *****
 -------------------------------------------------------------------
 Center     Atomic                   Forces (Hartrees/Bohr)
 Number     Number              X              Y              Z
 -------------------------------------------------------------------
      1        6           0.000008515   -0.000009681    0.000000000
      2        8          -0.000011595    0.000010989    0.000000000
      3        1           0.000003080   -0.000001308    0.000000000
 -------------------------------------------------------------------
 Cartesian Forces:  Max     0.000011595 RMS     0.000006933

 GradGradGradGradGradGradGradGradGradGradGradGradGradGradGradGradGradGrad
 Berny optimization.
 FormGI is forming the generalized inverse of G from B-inverse, IUseBI=4.
 Internal  Forces:  Max     0.000018256 RMS     0.000012040
 Search for a saddle point.
 Step number   1 out of a maximum of   20
 All quantities printed in internal units (Hartrees-Bohrs-Radians)
 Second derivative matrix not updated -- first step.
 The second derivative matrix:
                          R1        R2        A1
           R1           1.46408
           R2           0.00000   0.00187
           A1           0.00000   0.00000   0.16000
 ITU=  0
 LST/QST climbing along tangent vector
     Eigenvalues ---    0.06820   0.15816   1.39958
 Eigenvectors required to have negative eigenvalues:
                          R2        R1        A1
   1                    0.97200  -0.21016   0.10508
 QST in optimization variable space.
                        Tangent   TS vect  // Eig F  Eigenval
   1         R1        -0.21016  -0.21016   0.00000   0.06820
   2         R2         0.97200   0.97200   0.00001   0.15816
   3         A1         0.10508   0.10508   0.00000   1.39958
 RFO step:  Lambda0=6.819949387D-02 Lambda= 0.00000000D+00.
 Linear search not attempted -- option 19 set.
 Maximum step size (   0.300) exceeded in Quadratic search.
    -- Step size scaled by   0.001
 Iteration  1 RMS(Cart)=  0.09597014 RMS(Int)=  0.05281610
 Iteration  2 RMS(Cart)=  0.04276802 RMS(Int)=  0.00000204
 Iteration  3 RMS(Cart)=  0.00000269 RMS(Int)=  0.00000000
 Iteration  4 RMS(Cart)=  0.00000000 RMS(Int)=  0.00000000
 ClnCor:  largest displacement from symmetrization is 0.00D+00 for atom     0.
 Variable       Old X    -DE/DX   Delta X   Delta X   Delta X     New X
                                 (Linear)    (Quad)   (Total)
    R1        2.14302   0.00001   0.00000  -0.06305  -0.06305   2.07997
    R2       10.10325   0.00000   0.00000   0.29160   0.29160  10.39485
    A1        2.54494   0.00002   0.00000   0.03152   0.03152   2.57646
         Item               Value     Threshold  Converged?
 Maximum Force            0.000018     0.000450     YES
 RMS     Force            0.000012     0.000300     YES
 Maximum Displacement     0.163054     0.001800     NO 
 RMS     Displacement     0.136665     0.001200     NO 
 Predicted change in Energy= 3.069832D-03
 GradGradGradGradGradGradGradGradGradGradGradGradGradGradGradGradGradGrad

                          Input orientation:                          
 ---------------------------------------------------------------------
 Center     Atomic      Atomic             Coordinates (Angstroms)
 Number     Number       Type             X           Y           Z
 ---------------------------------------------------------------------
      1          6           0        0.238646   -1.001549    0.000000
      2          8           0        0.210619    0.098769    0.000000
      3          1           0       -2.852487    4.667715    0.000000
 ---------------------------------------------------------------------
                    Distance matrix (angstroms):
                    1          2          3
     1  C    0.000000
     2  O    1.100675   0.000000
     3  H    6.457217   5.500716   0.000000
 Stoichiometry    CHO(2)
 Framework group  CS[SG(CHO)]
 Deg. of freedom     3
 Full point group                 CS      NOp   2
 Largest Abelian subgroup         CS      NOp   2
 Largest concise Abelian subgroup C1      NOp   1
                         Standard orientation:                         
 ---------------------------------------------------------------------
 Center     Atomic      Atomic             Coordinates (Angstroms)
 Number     Number       Type             X           Y           Z
 ---------------------------------------------------------------------
      1          6           0        0.196385   -0.970102    0.000000
      2          8           0        0.196385    0.130573    0.000000
      3          1           0       -2.749386    4.776034    0.000000
 ---------------------------------------------------------------------
 Rotational constants (GHZ):         291.8386240          12.4814859          11.9695661
 Standard basis: Aug-CC-pVDZ (5D, 7F)
 There are    43 symmetry adapted cartesian basis functions of A'  symmetry.
 There are    16 symmetry adapted cartesian basis functions of A"  symmetry.
 There are    39 symmetry adapted basis functions of A'  symmetry.
 There are    16 symmetry adapted basis functions of A"  symmetry.
    55 basis functions,    97 primitive gaussians,    59 cartesian basis functions
     8 alpha electrons        7 beta electrons
       nuclear repulsion energy        24.3385280277 Hartrees.
 NAtoms=    3 NActive=    3 NUniq=    3 SFac= 1.00D+00 NAtFMM=   60 NAOKFM=F Big=F
 Integral buffers will be    131072 words long.
 Raffenetti 2 integral format.
 Two-electron integral symmetry is turned on.
 One-electron integrals computed using PRISM.
 NBasis=    55 RedAO= T EigKep=  2.35D-03  NBF=    39    16
 NBsUse=    55 1.00D-06 EigRej= -1.00D+00 NBFU=    39    16
 Initial guess from the checkpoint file:  "C:\Calculation\transition states\CO(1)H(1)aug-cc-pvdz.chk"
 B after Tr=     0.000000    0.000000    0.000000
         Rot=    0.999930    0.000000    0.000000    0.011829 Ang=   1.36 deg.
 Initial guess orbital symmetries:
 Alpha Orbitals:
       Occupied  (A') (A') (A') (A') (A') (A") (A') (A')
       Virtual   (A') (A") (A') (A') (A') (A") (A') (A') (A') (A")
                 (A') (A") (A') (A') (A") (A') (A') (A") (A') (A')
                 (A') (A") (A') (A') (A') (A") (A') (A") (A') (A')
                 (A") (A') (A") (A') (A") (A') (A') (A") (A') (A')
                 (A') (A') (A") (A') (A") (A') (A')
 Beta  Orbitals:
       Occupied  (A') (A') (A') (A') (A') (A") (A')
       Virtual   (A') (A") (A') (A') (A') (A') (A") (A') (A') (A')
                 (A") (A') (A') (A") (A') (A") (A') (A') (A") (A')
                 (A') (A") (A') (A') (A') (A') (A") (A') (A") (A')
                 (A') (A") (A') (A") (A') (A') (A") (A') (A") (A')
                 (A') (A') (A') (A") (A') (A") (A') (A')
 Initial guess <Sx>= 0.0000 <Sy>= 0.0000 <Sz>= 0.5000 <S**2>= 0.7500 S= 0.5000
 ExpMin= 2.97D-02 ExpMax= 1.17D+04 ExpMxC= 4.01D+02 IAcc=3 IRadAn=         5 AccDes= 0.00D+00
 Harris functional with IExCor=  402 and IRadAn=       5 diagonalized for initial guess.
 HarFok:  IExCor=  402 AccDes= 0.00D+00 IRadAn=         5 IDoV= 1 UseB2=F ITyADJ=14
 ICtDFT=  3500011 ScaDFX=  1.000000  1.000000  1.000000  1.000000
 FoFCou: FMM=F IPFlag=           0 FMFlag=      100000 FMFlg1=           0
         NFxFlg=           0 DoJE=T BraDBF=F KetDBF=T FulRan=T
         wScrn=  0.000000 ICntrl=       500 IOpCl=  0 I1Cent=   200000004 NGrid=           0
         NMat0=    1 NMatS0=      1 NMatT0=    0 NMatD0=    1 NMtDS0=    0 NMtDT0=    0
 Petite list used in FoFCou.
 Keep R1 and R2 ints in memory in symmetry-blocked form, NReq=2115463.
 Requested convergence on RMS density matrix=1.00D-08 within 128 cycles.
 Requested convergence on MAX density matrix=1.00D-06.
 Requested convergence on             energy=1.00D-06.
 No special actions if energy rises.
 SCF Done:  E(UB3LYP) =  -113.829279181     A.U. after    8 cycles
            NFock=  8  Conv=0.97D-08     -V/T= 2.0042
 <Sx>= 0.0000 <Sy>= 0.0000 <Sz>= 0.5000 <S**2>= 0.7500 S= 0.5000
 <L.S>= 0.000000000000E+00
 Annihilation of the first spin contaminant:
 S**2 before annihilation     0.7500,   after     0.7500
 Calling FoFJK, ICntrl=      2127 FMM=F ISym2X=1 I1Cent= 0 IOpClX= 1 NMat=1 NMatS=1 NMatT=0.
 ***** Axes restored to original set *****
 -------------------------------------------------------------------
 Center     Atomic                   Forces (Hartrees/Bohr)
 Number     Number              X              Y              Z
 -------------------------------------------------------------------
      1        6           0.002247861   -0.087923636    0.000000000
      2        8          -0.002251162    0.087925533    0.000000000
      3        1           0.000003301   -0.000001897    0.000000000
 -------------------------------------------------------------------
 Cartesian Forces:  Max     0.087925533 RMS     0.041461610

 GradGradGradGradGradGradGradGradGradGradGradGradGradGradGradGradGradGrad
 Berny optimization.
 FormGI is forming the generalized inverse of G from B-inverse, IUseBI=4.
 Internal  Forces:  Max     0.087952359 RMS     0.050779319
 Search for a saddle point.
 Step number   2 out of a maximum of   20
 All quantities printed in internal units (Hartrees-Bohrs-Radians)
 Update second derivatives using D2CorX and points    1    2
 The second derivative matrix:
                          R1        R2        A1
           R1           1.45595
           R2           0.01238   0.00429
           A1           0.00773  -0.01488   0.15310
 ITU=  0  0
 LST/QST climbing along tangent vector
     Eigenvalues ---    0.11803   0.70045   0.79486
 Eigenvectors required to have negative eigenvalues:
                          A1        R2        R1
   1                    0.80006  -0.59754  -0.05335
 QST in optimization variable space.
 Eigenvectors 1 and   3 swapped, overlap=  1.0000
                        Tangent   TS vect  // Eig F  Eigenval
   1         R1        -0.73807   0.73807   0.06491   0.79486
   2         R2         0.56326  -0.56326   0.02958   0.70045
   3         A1         0.37146  -0.37146  -0.00234   0.11803
 RFO step:  Lambda0=8.001246541D-01 Lambda=-1.29283379D-03.
 Linear search not attempted -- option 19 set.
 Maximum step size (   0.300) exceeded in Quadratic search.
    -- Step size scaled by   0.024
 Iteration  1 RMS(Cart)=  0.13302658 RMS(Int)=  0.01877114
 Iteration  2 RMS(Cart)=  0.01712001 RMS(Int)=  0.00009890
 Iteration  3 RMS(Cart)=  0.00010984 RMS(Int)=  0.00000001
 Iteration  4 RMS(Cart)=  0.00000001 RMS(Int)=  0.00000000
 ClnCor:  largest displacement from symmetrization is 7.94D-15 for atom     3.
 Variable       Old X    -DE/DX   Delta X   Delta X   Delta X     New X
                                 (Linear)    (Quad)   (Total)
    R1        2.07997   0.08795   0.00000  -0.22070  -0.22070   1.85927
    R2       10.39485   0.00000   0.00000   0.16985   0.16985  10.56470
    A1        2.57646   0.00002   0.00000   0.11154   0.11154   2.68800
         Item               Value     Threshold  Converged?
 Maximum Force            0.087952     0.000450     NO 
 RMS     Force            0.050779     0.000300     NO 
 Maximum Displacement     0.155633     0.001800     NO 
 RMS     Displacement     0.131882     0.001200     NO 
 Predicted change in Energy= 5.494818D-02
 GradGradGradGradGradGradGradGradGradGradGradGradGradGradGradGradGradGrad

                          Input orientation:                          
 ---------------------------------------------------------------------
 Center     Atomic      Atomic             Coordinates (Angstroms)
 Number     Number       Type             X           Y           Z
 ---------------------------------------------------------------------
      1          6           0        0.291247   -0.960260    0.000000
      2          8           0        0.172339    0.016412    0.000000
      3          1           0       -2.866808    4.708783    0.000000
 ---------------------------------------------------------------------
                    Distance matrix (angstroms):
                    1          2          3
     1  C    0.000000
     2  O    0.983883   0.000000
     3  H    6.489327   5.590596   0.000000
 Stoichiometry    CHO(2)
 Framework group  CS[SG(CHO)]
 Deg. of freedom     3
 Full point group                 CS      NOp   2
 Largest Abelian subgroup         CS      NOp   2
 Largest concise Abelian subgroup C1      NOp   1
                         Standard orientation:                         
 ---------------------------------------------------------------------
 Center     Atomic      Atomic             Coordinates (Angstroms)
 Number     Number       Type             X           Y           Z
 ---------------------------------------------------------------------
      1          6           0        0.163318   -0.925348    0.000000
      2          8           0        0.163318    0.058535    0.000000
      3          1           0       -2.286452    5.083811    0.000000
 ---------------------------------------------------------------------
 Rotational constants (GHZ):         526.6493953          12.5160061          12.2254637
 Standard basis: Aug-CC-pVDZ (5D, 7F)
 There are    43 symmetry adapted cartesian basis functions of A'  symmetry.
 There are    16 symmetry adapted cartesian basis functions of A"  symmetry.
 There are    39 symmetry adapted basis functions of A'  symmetry.
 There are    16 symmetry adapted basis functions of A"  symmetry.
    55 basis functions,    97 primitive gaussians,    59 cartesian basis functions
     8 alpha electrons        7 beta electrons
       nuclear repulsion energy        27.0630951159 Hartrees.
 NAtoms=    3 NActive=    3 NUniq=    3 SFac= 1.00D+00 NAtFMM=   60 NAOKFM=F Big=F
 Integral buffers will be    131072 words long.
 Raffenetti 2 integral format.
 Two-electron integral symmetry is turned on.
 One-electron integrals computed using PRISM.
 NBasis=    55 RedAO= T EigKep=  2.11D-03  NBF=    39    16
 NBsUse=    55 1.00D-06 EigRej= -1.00D+00 NBFU=    39    16
 Initial guess from the checkpoint file:  "C:\Calculation\transition states\CO(1)H(1)aug-cc-pvdz.chk"
 B after Tr=     0.000000    0.000000    0.000000
         Rot=    0.998997    0.000000    0.000000    0.044781 Ang=   5.13 deg.
 Initial guess orbital symmetries:
 Alpha Orbitals:
       Occupied  (A') (A') (A') (A') (A') (A") (A') (A')
       Virtual   (A") (A') (A') (A') (A') (A") (A') (A') (A') (A")
                 (A') (A") (A') (A') (A") (A') (A') (A") (A') (A')
                 (A') (A") (A') (A') (A') (A") (A') (A") (A') (A')
                 (A") (A') (A") (A') (A") (A') (A') (A") (A') (A')
                 (A') (A') (A") (A') (A") (A') (A')
 Beta  Orbitals:
       Occupied  (A') (A') (A') (A') (A") (A') (A')
       Virtual   (A') (A') (A") (A') (A') (A') (A") (A') (A') (A')
                 (A") (A') (A") (A') (A') (A") (A') (A') (A") (A')
                 (A') (A") (A') (A') (A') (A') (A") (A') (A") (A')
                 (A') (A") (A') (A") (A') (A') (A") (A') (A") (A')
                 (A') (A') (A') (A") (A') (A") (A') (A')
 Initial guess <Sx>= 0.0000 <Sy>= 0.0000 <Sz>= 0.5000 <S**2>= 0.7500 S= 0.5000
 ExpMin= 2.97D-02 ExpMax= 1.17D+04 ExpMxC= 4.01D+02 IAcc=3 IRadAn=         5 AccDes= 0.00D+00
 Harris functional with IExCor=  402 and IRadAn=       5 diagonalized for initial guess.
 HarFok:  IExCor=  402 AccDes= 0.00D+00 IRadAn=         5 IDoV= 1 UseB2=F ITyADJ=14
 ICtDFT=  3500011 ScaDFX=  1.000000  1.000000  1.000000  1.000000
 FoFCou: FMM=F IPFlag=           0 FMFlag=      100000 FMFlg1=           0
         NFxFlg=           0 DoJE=T BraDBF=F KetDBF=T FulRan=T
         wScrn=  0.000000 ICntrl=       500 IOpCl=  0 I1Cent=   200000004 NGrid=           0
         NMat0=    1 NMatS0=      1 NMatT0=    0 NMatD0=    1 NMtDS0=    0 NMtDT0=    0
 Petite list used in FoFCou.
 Keep R1 and R2 ints in memory in symmetry-blocked form, NReq=2115463.
 Requested convergence on RMS density matrix=1.00D-08 within 128 cycles.
 Requested convergence on MAX density matrix=1.00D-06.
 Requested convergence on             energy=1.00D-06.
 No special actions if energy rises.
 SCF Done:  E(UB3LYP) =  -113.759704754     A.U. after    9 cycles
            NFock=  9  Conv=0.86D-08     -V/T= 1.9958
 <Sx>= 0.0000 <Sy>= 0.0000 <Sz>= 0.5000 <S**2>= 0.7500 S= 0.5000
 <L.S>= 0.000000000000E+00
 Annihilation of the first spin contaminant:
 S**2 before annihilation     0.7500,   after     0.7500
 Calling FoFJK, ICntrl=      2127 FMM=F ISym2X=1 I1Cent= 0 IOpClX= 1 NMat=1 NMatS=1 NMatT=0.
 ***** Axes restored to original set *****
 -------------------------------------------------------------------
 Center     Atomic                   Forces (Hartrees/Bohr)
 Number     Number              X              Y              Z
 -------------------------------------------------------------------
      1        6           0.073554516   -0.604052487    0.000000000
      2        8          -0.073561692    0.604059664    0.000000000
      3        1           0.000007175   -0.000007177    0.000000000
 -------------------------------------------------------------------
 Cartesian Forces:  Max     0.604059664 RMS     0.286858284

 GradGradGradGradGradGradGradGradGradGradGradGradGradGradGradGradGradGrad
 Berny optimization.
 FormGI is forming the generalized inverse of G from B-inverse, IUseBI=4.
 Internal  Forces:  Max     0.608514316 RMS     0.351325904
 Search for a saddle point.
 Step number   3 out of a maximum of   20
 All quantities printed in internal units (Hartrees-Bohrs-Radians)
 Update second derivatives using D2CorX and points    1    2    3
 The second derivative matrix:
                          R1        R2        A1
           R1           2.22065
           R2          -0.16367  -0.14633
           A1          -0.02383  -0.10097   0.10655
 ITU=  0  0  0
 LST/QST climbing along tangent vector
     Eigenvalues ---   -0.19251   0.59671   1.77667
 Eigenvectors required to have negative eigenvalues:
                          R2        A1        R1
   1                    0.93888   0.33845   0.06294
 QST in optimization variable space.
 Eigenvectors 1 and   3 swapped, overlap=  1.0000
                        Tangent   TS vect  // Eig F  Eigenval
   1         R1        -0.88988   0.88988   0.54149   1.77667
   2         R2        -0.10074   0.10074   0.13749   0.59671
   3         A1         0.44494  -0.44494   0.01915  -0.19251
 RFO step:  Lambda0=1.928698648D+00 Lambda=-2.80275025D-02.
 Linear search not attempted -- option 19 set.
 Maximum step size (   0.300) exceeded in Quadratic search.
    -- Step size scaled by   0.082
 Iteration  1 RMS(Cart)=  0.13939097 RMS(Int)=  0.04215054
 Iteration  2 RMS(Cart)=  0.03621322 RMS(Int)=  0.00041580
 Iteration  3 RMS(Cart)=  0.00042608 RMS(Int)=  0.00000019
 Iteration  4 RMS(Cart)=  0.00000017 RMS(Int)=  0.00000000
 ClnCor:  largest displacement from symmetrization is 6.40D-15 for atom     3.
 Variable       Old X    -DE/DX   Delta X   Delta X   Delta X     New X
                                 (Linear)    (Quad)   (Total)
    R1        1.85927   0.60851   0.00000  -0.24869  -0.24869   1.61058
    R2       10.56470  -0.00001   0.00000   0.02245   0.02245  10.58715
    A1        2.68800   0.00002   0.00000   0.16627   0.16627   2.85428
         Item               Value     Threshold  Converged?
 Maximum Force            0.608514     0.000450     NO 
 RMS     Force            0.351326     0.000300     NO 
 Maximum Displacement     0.154423     0.001800     NO 
 RMS     Displacement     0.147951     0.001200     NO 
 Predicted change in Energy= 2.229612D-01
 GradGradGradGradGradGradGradGradGradGradGradGradGradGradGradGradGradGrad

                          Input orientation:                          
 ---------------------------------------------------------------------
 Center     Atomic      Atomic             Coordinates (Angstroms)
 Number     Number       Type             X           Y           Z
 ---------------------------------------------------------------------
      1          6           0        0.336304   -0.878543    0.000000
      2          8           0        0.109710   -0.056937    0.000000
      3          1           0       -2.849235    4.700414    0.000000
 ---------------------------------------------------------------------
                    Distance matrix (angstroms):
                    1          2          3
     1  C    0.000000
     2  O    0.852280   0.000000
     3  H    6.424361   5.602477   0.000000
 Stoichiometry    CHO(2)
 Framework group  CS[SG(CHO)]
 Deg. of freedom     3
 Full point group                 CS      NOp   2
 Largest Abelian subgroup         CS      NOp   2
 Largest concise Abelian subgroup C1      NOp   1
                         Standard orientation:                         
 ---------------------------------------------------------------------
 Center     Atomic      Atomic             Coordinates (Angstroms)
 Number     Number       Type             X           Y           Z
 ---------------------------------------------------------------------
      1          6           0        0.105841   -0.869556    0.000000
      2          8           0        0.105841   -0.017276    0.000000
      3          1           0       -1.481781    5.355544    0.000000
 ---------------------------------------------------------------------
 Rotational constants (GHZ):        1620.2951166          12.9083911          12.8063667
 Standard basis: Aug-CC-pVDZ (5D, 7F)
 There are    43 symmetry adapted cartesian basis functions of A'  symmetry.
 There are    16 symmetry adapted cartesian basis functions of A"  symmetry.
 There are    39 symmetry adapted basis functions of A'  symmetry.
 There are    16 symmetry adapted basis functions of A"  symmetry.
    55 basis functions,    97 primitive gaussians,    59 cartesian basis functions
     8 alpha electrons        7 beta electrons
       nuclear repulsion energy        31.0528634093 Hartrees.
 NAtoms=    3 NActive=    3 NUniq=    3 SFac= 1.00D+00 NAtFMM=   60 NAOKFM=F Big=F
 Integral buffers will be    131072 words long.
 Raffenetti 2 integral format.
 Two-electron integral symmetry is turned on.
 One-electron integrals computed using PRISM.
 NBasis=    55 RedAO= T EigKep=  1.86D-03  NBF=    39    16
 NBsUse=    55 1.00D-06 EigRej= -1.00D+00 NBFU=    39    16
 Initial guess from the checkpoint file:  "C:\Calculation\transition states\CO(1)H(1)aug-cc-pvdz.chk"
 B after Tr=     0.000000    0.000000    0.000000
         Rot=    0.997531    0.000000    0.000000    0.070232 Ang=   8.05 deg.
 Initial guess orbital symmetries:
 Alpha Orbitals:
       Occupied  (A') (A') (A') (A') (A") (A') (A') (A')
       Virtual   (A") (A') (A') (A') (A') (A") (A') (A') (A') (A")
                 (A') (A") (A') (A') (A") (A') (A') (A") (A') (A')
                 (A") (A') (A') (A') (A") (A') (A') (A") (A') (A')
                 (A") (A') (A') (A") (A') (A") (A') (A") (A') (A')
                 (A') (A') (A") (A') (A") (A') (A')
 Beta  Orbitals:
       Occupied  (A') (A') (A') (A') (A") (A') (A')
       Virtual   (A') (A") (A') (A') (A') (A') (A") (A') (A') (A')
                 (A") (A') (A") (A') (A') (A") (A') (A') (A") (A')
                 (A") (A') (A') (A') (A') (A") (A') (A') (A") (A')
                 (A') (A") (A') (A") (A') (A') (A') (A") (A") (A')
                 (A') (A') (A') (A") (A') (A") (A') (A')
 Initial guess <Sx>= 0.0000 <Sy>= 0.0000 <Sz>= 0.5000 <S**2>= 0.7500 S= 0.5000
 ExpMin= 2.97D-02 ExpMax= 1.17D+04 ExpMxC= 4.01D+02 IAcc=3 IRadAn=         5 AccDes= 0.00D+00
 Harris functional with IExCor=  402 and IRadAn=       5 diagonalized for initial guess.
 HarFok:  IExCor=  402 AccDes= 0.00D+00 IRadAn=         5 IDoV= 1 UseB2=F ITyADJ=14
 ICtDFT=  3500011 ScaDFX=  1.000000  1.000000  1.000000  1.000000
 FoFCou: FMM=F IPFlag=           0 FMFlag=      100000 FMFlg1=           0
         NFxFlg=           0 DoJE=T BraDBF=F KetDBF=T FulRan=T
         wScrn=  0.000000 ICntrl=       500 IOpCl=  0 I1Cent=   200000004 NGrid=           0
         NMat0=    1 NMatS0=      1 NMatT0=    0 NMatD0=    1 NMtDS0=    0 NMtDT0=    0
 Petite list used in FoFCou.
 Keep R1 and R2 ints in memory in symmetry-blocked form, NReq=2115463.
 Requested convergence on RMS density matrix=1.00D-08 within 128 cycles.
 Requested convergence on MAX density matrix=1.00D-06.
 Requested convergence on             energy=1.00D-06.
 No special actions if energy rises.
 SCF Done:  E(UB3LYP) =  -113.467360570     A.U. after    9 cycles
            NFock=  9  Conv=0.85D-08     -V/T= 1.9792
 <Sx>= 0.0000 <Sy>= 0.0000 <Sz>= 0.5000 <S**2>= 0.7500 S= 0.5000
 <L.S>= 0.000000000000E+00
 Annihilation of the first spin contaminant:
 S**2 before annihilation     0.7500,   after     0.7500
 Calling FoFJK, ICntrl=      2127 FMM=F ISym2X=1 I1Cent= 0 IOpClX= 1 NMat=1 NMatS=1 NMatT=0.
 ***** Axes restored to original set *****
 -------------------------------------------------------------------
 Center     Atomic                   Forces (Hartrees/Bohr)
 Number     Number              X              Y              Z
 -------------------------------------------------------------------
      1        6           0.511869045   -1.855912805    0.000000000
      2        8          -0.511886190    1.855935111    0.000000000
      3        1           0.000017145   -0.000022306    0.000000000
 -------------------------------------------------------------------
 Cartesian Forces:  Max     1.855935111 RMS     0.907557459

 GradGradGradGradGradGradGradGradGradGradGradGradGradGradGradGradGradGrad
 Berny optimization.
 FormGI is forming the generalized inverse of G from B-inverse, IUseBI=4.
 Internal  Forces:  Max     1.925207071 RMS     1.111518821
 Search for a saddle point.
 Step number   4 out of a maximum of   20
 All quantities printed in internal units (Hartrees-Bohrs-Radians)
 Update second derivatives using D2CorX and points    2    3    4
 The second derivative matrix:
                          R1        R2        A1
           R1           5.21688
           R2          -0.14909  -0.20066
           A1          -0.09584  -0.19579  -0.11696
 ITU=  0  0  0  0
 LST/QST climbing along tangent vector
     Eigenvalues ---   -0.28458   1.84290   3.34095
 Eigenvectors required to have negative eigenvalues:
                          A1        R2        R1
   1                    0.90456   0.42631   0.00517
 QST in optimization variable space.
 Eigenvectors 1 and   2 swapped, overlap=  1.0000
                        Tangent   TS vect  // Eig F  Eigenval
   1         R1        -0.61202   0.61202   1.17823   1.84290
   2         R2        -0.71402   0.71402   0.00499  -0.28458
   3         A1         0.34001  -0.34001   0.76126   3.34095
 RFO step:  Lambda0=2.417207300D+00 Lambda=-2.84783527D-01.
 Linear search not attempted -- option 19 set.
 Maximum step size (   0.300) exceeded in Quadratic search.
    -- Step size scaled by   0.137
 Iteration  1 RMS(Cart)=  0.16336779 RMS(Int)=  0.01853873
 Iteration  2 RMS(Cart)=  0.01643740 RMS(Int)=  0.00018745
 Iteration  3 RMS(Cart)=  0.00017201 RMS(Int)=  0.00000003
 Iteration  4 RMS(Cart)=  0.00000003 RMS(Int)=  0.00000000
 ClnCor:  largest displacement from symmetrization is 3.66D-15 for atom     3.
 Variable       Old X    -DE/DX   Delta X   Delta X   Delta X     New X
                                 (Linear)    (Quad)   (Total)
    R1        1.61058   1.92521   0.00000  -0.14842  -0.14842   1.46215
    R2       10.58715  -0.00003   0.00000  -0.17249  -0.17249  10.41465
    A1        2.85428   0.00003   0.00000   0.19549   0.19549   3.04977
         Item               Value     Threshold  Converged?
 Maximum Force            1.925207     0.000450     NO 
 RMS     Force            1.111519     0.000300     NO 
 Maximum Displacement     0.175275     0.001800     NO 
 RMS     Displacement     0.164388     0.001200     NO 
 Predicted change in Energy= 3.435409D-01
 GradGradGradGradGradGradGradGradGradGradGradGradGradGradGradGradGradGrad

                          Input orientation:                          
 ---------------------------------------------------------------------
 Center     Atomic      Atomic             Coordinates (Angstroms)
 Number     Number       Type             X           Y           Z
 ---------------------------------------------------------------------
      1          6           0        0.366563   -0.785791    0.000000
      2          8           0        0.031415   -0.088405    0.000000
      3          1           0       -2.801200    4.639131    0.000000
 ---------------------------------------------------------------------
                    Distance matrix (angstroms):
                    1          2          3
     1  C    0.000000
     2  O    0.773738   0.000000
     3  H    6.282077   5.511198   0.000000
 Stoichiometry    CHO(2)
 Framework group  CS[SG(CHO)]
 Deg. of freedom     3
 Full point group                 CS      NOp   2
 Largest Abelian subgroup         CS      NOp   2
 Largest concise Abelian subgroup C1      NOp   1
                         Standard orientation:                         
 ---------------------------------------------------------------------
 Center     Atomic      Atomic             Coordinates (Angstroms)
 Number     Number       Type             X           Y           Z
 ---------------------------------------------------------------------
      1          6           0        0.033689   -0.830108    0.000000
      2          8           0        0.033689   -0.056370    0.000000
      3          1           0       -0.471651    5.431611    0.000000
 ---------------------------------------------------------------------
 Rotational constants (GHZ):       18473.3140720          13.5589076          13.5489631
 Standard basis: Aug-CC-pVDZ (5D, 7F)
 There are    43 symmetry adapted cartesian basis functions of A'  symmetry.
 There are    16 symmetry adapted cartesian basis functions of A"  symmetry.
 There are    39 symmetry adapted basis functions of A'  symmetry.
 There are    16 symmetry adapted basis functions of A"  symmetry.
    55 basis functions,    97 primitive gaussians,    59 cartesian basis functions
     8 alpha electrons        7 beta electrons
       nuclear repulsion energy        34.1018564619 Hartrees.
 NAtoms=    3 NActive=    3 NUniq=    3 SFac= 1.00D+00 NAtFMM=   60 NAOKFM=F Big=F
 Integral buffers will be    131072 words long.
 Raffenetti 2 integral format.
 Two-electron integral symmetry is turned on.
 One-electron integrals computed using PRISM.
 NBasis=    55 RedAO= T EigKep=  1.69D-03  NBF=    39    16
 NBsUse=    55 1.00D-06 EigRej= -1.00D+00 NBFU=    39    16
 Initial guess from the checkpoint file:  "C:\Calculation\transition states\CO(1)H(1)aug-cc-pvdz.chk"
 B after Tr=     0.000000    0.000000    0.000000
         Rot=    0.996329    0.000000    0.000000    0.085610 Ang=   9.82 deg.
 Initial guess orbital symmetries:
 Alpha Orbitals:
       Occupied  (A') (A') (A') (A') (A") (A') (A') (A')
       Virtual   (A') (A') (A") (A') (A') (A") (A') (A') (A') (A")
                 (A') (A") (A') (A') (A") (A') (A') (A") (A') (A')
                 (A") (A') (A') (A') (A") (A') (A') (A") (A') (A')
                 (A") (A') (A") (A') (A') (A") (A') (A") (A') (A')
                 (A') (A") (A') (A") (A') (A') (A')
 Beta  Orbitals:
       Occupied  (A') (A') (A') (A') (A") (A') (A')
       Virtual   (A') (A') (A") (A') (A') (A') (A") (A') (A') (A')
                 (A") (A') (A") (A') (A') (A") (A') (A') (A") (A')
                 (A") (A') (A') (A') (A') (A") (A') (A') (A") (A')
                 (A') (A") (A') (A") (A') (A') (A") (A') (A") (A')
                 (A') (A') (A") (A') (A") (A') (A') (A')
 Initial guess <Sx>= 0.0000 <Sy>= 0.0000 <Sz>= 0.5000 <S**2>= 0.7500 S= 0.5000
 ExpMin= 2.97D-02 ExpMax= 1.17D+04 ExpMxC= 4.01D+02 IAcc=3 IRadAn=         5 AccDes= 0.00D+00
 Harris functional with IExCor=  402 and IRadAn=       5 diagonalized for initial guess.
 HarFok:  IExCor=  402 AccDes= 0.00D+00 IRadAn=         5 IDoV= 1 UseB2=F ITyADJ=14
 ICtDFT=  3500011 ScaDFX=  1.000000  1.000000  1.000000  1.000000
 FoFCou: FMM=F IPFlag=           0 FMFlag=      100000 FMFlg1=           0
         NFxFlg=           0 DoJE=T BraDBF=F KetDBF=T FulRan=T
         wScrn=  0.000000 ICntrl=       500 IOpCl=  0 I1Cent=   200000004 NGrid=           0
         NMat0=    1 NMatS0=      1 NMatT0=    0 NMatD0=    1 NMtDS0=    0 NMtDT0=    0
 Petite list used in FoFCou.
 Keep R1 and R2 ints in memory in symmetry-blocked form, NReq=2115463.
 Requested convergence on RMS density matrix=1.00D-08 within 128 cycles.
 Requested convergence on MAX density matrix=1.00D-06.
 Requested convergence on             energy=1.00D-06.
 No special actions if energy rises.
 SCF Done:  E(UB3LYP) =  -113.079125499     A.U. after    9 cycles
            NFock=  9  Conv=0.78D-08     -V/T= 1.9638
 <Sx>= 0.0000 <Sy>= 0.0000 <Sz>= 0.5000 <S**2>= 0.7500 S= 0.5000
 <L.S>= 0.000000000000E+00
 Annihilation of the first spin contaminant:
 S**2 before annihilation     0.7500,   after     0.7500
 Calling FoFJK, ICntrl=      2127 FMM=F ISym2X=1 I1Cent= 0 IOpClX= 1 NMat=1 NMatS=1 NMatT=0.
 ***** Axes restored to original set *****
 -------------------------------------------------------------------
 Center     Atomic                   Forces (Hartrees/Bohr)
 Number     Number              X              Y              Z
 -------------------------------------------------------------------
      1        6           1.485849486   -3.091773131    0.000000000
      2        8          -1.485879197    3.091819588    0.000000000
      3        1           0.000029711   -0.000046458    0.000000000
 -------------------------------------------------------------------
 Cartesian Forces:  Max     3.091819588 RMS     1.617061641

 GradGradGradGradGradGradGradGradGradGradGradGradGradGradGradGradGradGrad
 Berny optimization.
 FormGI is forming the generalized inverse of G from B-inverse, IUseBI=4.
 Internal  Forces:  Max     3.430278383 RMS     1.980472148
 Search for a saddle point.
 Step number   5 out of a maximum of   20
 All quantities printed in internal units (Hartrees-Bohrs-Radians)
 Update second derivatives using D2CorX and points    3    4    5
 The second derivative matrix:
                          R1        R2        A1
           R1           8.53705
           R2           0.47863  -0.35458
           A1          -0.79504   0.05066  -0.55884
 ITU=  0  0  0  0
     Eigenvalues ---   -0.65800  -0.34923   8.63086
 Eigenvectors required to have negative eigenvalues:
                          A1        R2        R1
   1                    0.94492  -0.31230   0.09796
 QST in optimization variable space.
 Eigenvectors 1 and   2 swapped, overlap=  0.9376
                        Tangent   TS vect  // Eig F  Eigenval
   1         R1        -0.12934  -0.02283  -0.07836  -0.34923
   2         R2        -0.99160   0.94853   0.33605  -0.65800
   3         A1         0.00000   0.31586   3.41288   8.63086
 RFO step:  Lambda0=1.677691908D-02 Lambda=-1.33542334D+00.
 Linear search not attempted -- option 19 set.
 Maximum step size (   0.300) exceeded in Quadratic search.
    -- Step size scaled by   0.352
 Iteration  1 RMS(Cart)=  0.11520341 RMS(Int)=  0.13907200
 New curvilinear step failed, DQL= 6.45D-02 SP=-9.10D-01.
 ITry= 1 IFail=1 DXMaxC= 1.40D-01 DCOld= 1.00D+10 DXMaxT= 3.00D-01 DXLimC= 3.00D+00 Rises=F
 Iteration  1 RMS(Cart)=  0.10910753 RMS(Int)=  0.12219711
 New curvilinear step failed, DQL= 7.04D-02 SP=-9.10D-01.
 ITry= 2 IFail=1 DXMaxC= 1.32D-01 DCOld= 1.00D+10 DXMaxT= 3.00D-01 DXLimC= 3.00D+00 Rises=F
 Iteration  1 RMS(Cart)=  0.10239729 RMS(Int)=  0.10447048
 New curvilinear step failed, DQL= 6.04D-02 SP=-8.89D-01.
 ITry= 3 IFail=1 DXMaxC= 1.24D-01 DCOld= 1.00D+10 DXMaxT= 3.00D-01 DXLimC= 3.00D+00 Rises=F
 Iteration  1 RMS(Cart)=  0.11107485 RMS(Int)=  0.09783991
 New curvilinear step failed, DQL= 1.65D-02 SP=-9.99D-01.
 ITry= 4 IFail=1 DXMaxC= 1.34D-01 DCOld= 1.00D+10 DXMaxT= 3.00D-01 DXLimC= 3.00D+00 Rises=F
 Iteration  1 RMS(Cart)=  0.09744954 RMS(Int)=  0.07152570
 New curvilinear step failed, DQL= 1.07D-02 SP=-8.42D-01.
 ITry= 5 IFail=1 DXMaxC= 1.17D-01 DCOld= 1.00D+10 DXMaxT= 3.00D-01 DXLimC= 3.00D+00 Rises=F
 Iteration  1 RMS(Cart)=  0.08120795 RMS(Int)=  0.04267080
 New curvilinear step failed, DQL= 9.44D-03 SP=-5.89D-01.
 ITry= 6 IFail=1 DXMaxC= 9.78D-02 DCOld= 1.00D+10 DXMaxT= 3.00D-01 DXLimC= 3.00D+00 Rises=F
 Iteration  1 RMS(Cart)=  0.06496636 RMS(Int)=  0.01373557
 New curvilinear step failed, DQL= 7.50D-03 SP=-2.83D-01.
 ITry= 7 IFail=1 DXMaxC= 7.83D-02 DCOld= 1.00D+10 DXMaxT= 3.00D-01 DXLimC= 3.00D+00 Rises=F
 Iteration  1 RMS(Cart)=  0.04867922 RMS(Int)=  0.00252745
 Iteration  2 RMS(Cart)=  0.00221912 RMS(Int)=  0.00000357
 Iteration  3 RMS(Cart)=  0.00000338 RMS(Int)=  0.00000000
 Iteration  4 RMS(Cart)=  0.00000000 RMS(Int)=  0.00000000
 ITry= 8 IFail=0 DXMaxC= 5.87D-02 DCOld= 1.00D+10 DXMaxT= 3.00D-01 DXLimC= 3.00D+00 Rises=F
 ClnCor:  largest displacement from symmetrization is 1.99D-15 for atom     3.
 Variable       Old X    -DE/DX   Delta X   Delta X   Delta X     New X
                                 (Linear)    (Quad)   (Total)
    R1        1.46215   3.43028   0.00000   0.14414   0.04324   1.50540
    R2       10.41465  -0.00006   0.00000  -0.00464  -0.00139  10.41326
    A1        3.04977   0.00002   0.00000   0.26306   0.07892   3.12869
         Item               Value     Threshold  Converged?
 Maximum Force            3.430278     0.000450     NO 
 RMS     Force            1.980472     0.000300     NO 
 Maximum Displacement     0.058656     0.001800     NO 
 RMS     Displacement     0.048982     0.001200     NO 
 Predicted change in Energy=-1.448442D-01
 GradGradGradGradGradGradGradGradGradGradGradGradGradGradGradGradGradGrad

                          Input orientation:                          
 ---------------------------------------------------------------------
 Center     Atomic      Atomic             Coordinates (Angstroms)
 Number     Number       Type             X           Y           Z
 ---------------------------------------------------------------------
      1          6           0        0.397602   -0.787072    0.000000
      2          8           0        0.001229   -0.096063    0.000000
      3          1           0       -2.802053    4.648071    0.000000
 ---------------------------------------------------------------------
                    Distance matrix (angstroms):
                    1          2          3
     1  C    0.000000
     2  O    0.796622   0.000000
     3  H    6.307026   5.510462   0.000000
 Stoichiometry    CHO(2)
 Framework group  CS[SG(CHO)]
 Deg. of freedom     3
 Full point group                 CS      NOp   2
 Largest Abelian subgroup         CS      NOp   2
 Largest concise Abelian subgroup C1      NOp   1
                         Standard orientation:                         
 ---------------------------------------------------------------------
 Center     Atomic      Atomic             Coordinates (Angstroms)
 Number     Number       Type             X           Y           Z
 ---------------------------------------------------------------------
      1          6           0        0.004740   -0.845307    0.000000
      2          8           0        0.004740   -0.048685    0.000000
      3          1           0       -0.066365    5.461318    0.000000
 ---------------------------------------------------------------------
 Rotational constants (GHZ):      889448.0855055          13.4181250          13.4179226
 Standard basis: Aug-CC-pVDZ (5D, 7F)
 There are    43 symmetry adapted cartesian basis functions of A'  symmetry.
 There are    16 symmetry adapted cartesian basis functions of A"  symmetry.
 There are    39 symmetry adapted basis functions of A'  symmetry.
 There are    16 symmetry adapted basis functions of A"  symmetry.
    55 basis functions,    97 primitive gaussians,    59 cartesian basis functions
     8 alpha electrons        7 beta electrons
       nuclear repulsion energy        33.1569492422 Hartrees.
 NAtoms=    3 NActive=    3 NUniq=    3 SFac= 1.00D+00 NAtFMM=   60 NAOKFM=F Big=F
 Integral buffers will be    131072 words long.
 Raffenetti 2 integral format.
 Two-electron integral symmetry is turned on.
 One-electron integrals computed using PRISM.
 NBasis=    55 RedAO= T EigKep=  1.74D-03  NBF=    39    16
 NBsUse=    55 1.00D-06 EigRej= -1.00D+00 NBFU=    39    16
 Initial guess from the checkpoint file:  "C:\Calculation\transition states\CO(1)H(1)aug-cc-pvdz.chk"
 B after Tr=     0.000000    0.000000    0.000000
         Rot=    0.999390    0.000000    0.000000    0.034915 Ang=   4.00 deg.
 Initial guess orbital symmetries:
 Alpha Orbitals:
       Occupied  (A') (A') (A') (A') (A") (A') (A') (A')
       Virtual   (A') (A') (A") (A') (A') (A') (A") (A') (A") (A')
                 (A') (A") (A') (A') (A") (A') (A') (A") (A') (A')
                 (A") (A') (A') (A') (A") (A') (A') (A") (A') (A')
                 (A") (A') (A") (A') (A') (A") (A') (A") (A') (A')
                 (A') (A") (A') (A") (A') (A') (A')
 Beta  Orbitals:
       Occupied  (A') (A') (A') (A') (A") (A') (A')
       Virtual   (A') (A') (A") (A') (A') (A') (A") (A') (A') (A')
                 (A") (A') (A') (A") (A') (A") (A') (A') (A") (A')
                 (A") (A') (A') (A') (A') (A") (A') (A') (A") (A')
                 (A') (A") (A') (A") (A') (A') (A") (A') (A") (A')
                 (A') (A') (A") (A') (A") (A') (A') (A')
 Initial guess <Sx>= 0.0000 <Sy>= 0.0000 <Sz>= 0.5000 <S**2>= 0.7500 S= 0.5000
 ExpMin= 2.97D-02 ExpMax= 1.17D+04 ExpMxC= 4.01D+02 IAcc=3 IRadAn=         5 AccDes= 0.00D+00
 Harris functional with IExCor=  402 and IRadAn=       5 diagonalized for initial guess.
 HarFok:  IExCor=  402 AccDes= 0.00D+00 IRadAn=         5 IDoV= 1 UseB2=F ITyADJ=14
 ICtDFT=  3500011 ScaDFX=  1.000000  1.000000  1.000000  1.000000
 FoFCou: FMM=F IPFlag=           0 FMFlag=      100000 FMFlg1=           0
         NFxFlg=           0 DoJE=T BraDBF=F KetDBF=T FulRan=T
         wScrn=  0.000000 ICntrl=       500 IOpCl=  0 I1Cent=   200000004 NGrid=           0
         NMat0=    1 NMatS0=      1 NMatT0=    0 NMatD0=    1 NMtDS0=    0 NMtDT0=    0
 Petite list used in FoFCou.
 Keep R1 and R2 ints in memory in symmetry-blocked form, NReq=2115463.
 Requested convergence on RMS density matrix=1.00D-08 within 128 cycles.
 Requested convergence on MAX density matrix=1.00D-06.
 Requested convergence on             energy=1.00D-06.
 No special actions if energy rises.
 SCF Done:  E(UB3LYP) =  -113.216000747     A.U. after    9 cycles
            NFock=  9  Conv=0.19D-08     -V/T= 1.9688
 <Sx>= 0.0000 <Sy>= 0.0000 <Sz>= 0.5000 <S**2>= 0.7500 S= 0.5000
 <L.S>= 0.000000000000E+00
 Annihilation of the first spin contaminant:
 S**2 before annihilation     0.7500,   after     0.7500
 Calling FoFJK, ICntrl=      2127 FMM=F ISym2X=1 I1Cent= 0 IOpClX= 1 NMat=1 NMatS=1 NMatT=0.
 ***** Axes restored to original set *****
 -------------------------------------------------------------------
 Center     Atomic                   Forces (Hartrees/Bohr)
 Number     Number              X              Y              Z
 -------------------------------------------------------------------
      1        6           1.449179723   -2.526392995    0.000000000
      2        8          -1.449204171    2.526433978    0.000000000
      3        1           0.000024448   -0.000040983    0.000000000
 -------------------------------------------------------------------
 Cartesian Forces:  Max     2.526433978 RMS     1.372987206

 GradGradGradGradGradGradGradGradGradGradGradGradGradGradGradGradGradGrad
 Berny optimization.
 FormGI is forming the generalized inverse of G from B-inverse, IUseBI=4.
 Internal  Forces:  Max     2.912521834 RMS     1.681545265
 Search for a saddle point.
 Step number   6 out of a maximum of   20
 All quantities printed in internal units (Hartrees-Bohrs-Radians)
 Update second derivatives using D2CorX and points    3    4    5    6
 The second derivative matrix:
                          R1        R2        A1
           R1          10.23514
           R2           0.26101  -0.30467
           A1           0.95691  -0.14848  -0.52677
 ITU=  0  0  0  0
     Eigenvalues ---   -0.68838  -0.23322  10.32530
 Eigenvectors required to have negative eigenvalues:
                          A1        R2        R1
   1                    0.90694   0.41168  -0.08929
 QST in optimization variable space.
 Eigenvectors 1 and   2 swapped, overlap=  0.8980
                        Tangent   TS vect  // Eig F  Eigenval
   1         R1        -0.27443   0.01495   0.04351  -0.23322
   2         R2        -0.96052   0.91103  -0.26007  -0.68838
   3         A1         0.04574  -0.41207   2.90056  10.32530
 RFO step:  Lambda0=7.851189987D-03 Lambda=-9.77917364D-01.
 Linear search not attempted -- option 19 set.
 Maximum step size (   0.300) exceeded in Quadratic search.
    -- Step size scaled by   0.369
 Iteration  1 RMS(Cart)=  0.13442428 RMS(Int)=  0.02211002
 Iteration  2 RMS(Cart)=  0.02285429 RMS(Int)=  0.00044410
 Iteration  3 RMS(Cart)=  0.00038249 RMS(Int)=  0.00000010
 Iteration  4 RMS(Cart)=  0.00000010 RMS(Int)=  0.00000000
 ClnCor:  largest displacement from symmetrization is 2.51D-15 for atom     3.
 Variable       Old X    -DE/DX   Delta X   Delta X   Delta X     New X
                                 (Linear)    (Quad)   (Total)
    R1        1.50540   2.91252   0.00000   0.11802   0.11802   1.62342
    R2       10.41326  -0.00005   0.00000  -0.17241  -0.17241  10.24086
    A1        3.12869   0.00000   0.00000  -0.21528  -0.21528   2.91341
         Item               Value     Threshold  Converged?
 Maximum Force            2.912522     0.000450     NO 
 RMS     Force            1.681545     0.000300     NO 
 Maximum Displacement     0.160236     0.001800     NO 
 RMS     Displacement     0.148889     0.001200     NO 
 Predicted change in Energy=-3.243354D-01
 GradGradGradGradGradGradGradGradGradGradGradGradGradGradGradGradGradGrad

                          Input orientation:                          
 ---------------------------------------------------------------------
 Center     Atomic      Atomic             Coordinates (Angstroms)
 Number     Number       Type             X           Y           Z
 ---------------------------------------------------------------------
      1          6           0        0.329374   -0.825573    0.000000
      2          8           0        0.055656   -0.011270    0.000000
      3          1           0       -2.788251    4.601778    0.000000
 ---------------------------------------------------------------------
                    Distance matrix (angstroms):
                    1          2          3
     1  C    0.000000
     2  O    0.859076   0.000000
     3  H    6.259052   5.419227   0.000000
 Stoichiometry    CHO(2)
 Framework group  CS[SG(CHO)]
 Deg. of freedom     3
 Full point group                 CS      NOp   2
 Largest Abelian subgroup         CS      NOp   2
 Largest concise Abelian subgroup C1      NOp   1
                         Standard orientation:                         
 ---------------------------------------------------------------------
 Center     Atomic      Atomic             Coordinates (Angstroms)
 Number     Number       Type             X           Y           Z
 ---------------------------------------------------------------------
      1          6           0        0.081726   -0.867362    0.000000
      2          8           0        0.081726   -0.008286    0.000000
      3          1           0       -1.144159    5.270466    0.000000
 ---------------------------------------------------------------------
 Rotational constants (GHZ):        2551.4029713          13.5326686          13.4612699
 Standard basis: Aug-CC-pVDZ (5D, 7F)
 There are    43 symmetry adapted cartesian basis functions of A'  symmetry.
 There are    16 symmetry adapted cartesian basis functions of A"  symmetry.
 There are    39 symmetry adapted basis functions of A'  symmetry.
 There are    16 symmetry adapted basis functions of A"  symmetry.
    55 basis functions,    97 primitive gaussians,    59 cartesian basis functions
     8 alpha electrons        7 beta electrons
       nuclear repulsion energy        30.8556997875 Hartrees.
 NAtoms=    3 NActive=    3 NUniq=    3 SFac= 1.00D+00 NAtFMM=   60 NAOKFM=F Big=F
 Integral buffers will be    131072 words long.
 Raffenetti 2 integral format.
 Two-electron integral symmetry is turned on.
 One-electron integrals computed using PRISM.
 NBasis=    55 RedAO= T EigKep=  1.87D-03  NBF=    39    16
 NBsUse=    55 1.00D-06 EigRej= -1.00D+00 NBFU=    39    16
 Initial guess from the checkpoint file:  "C:\Calculation\transition states\CO(1)H(1)aug-cc-pvdz.chk"
 B after Tr=     0.000000    0.000000    0.000000
         Rot=    0.995597    0.000000    0.000000   -0.093734 Ang= -10.76 deg.
 Initial guess orbital symmetries:
 Alpha Orbitals:
       Occupied  (A') (A') (A') (A') (A") (A') (A') (A')
       Virtual   (A') (A') (A") (A') (A') (A') (A") (A') (A") (A')
                 (A') (A") (A') (A') (A") (A') (A') (A") (A') (A')
                 (A") (A') (A') (A') (A') (A") (A') (A") (A') (A')
                 (A') (A") (A") (A') (A') (A") (A') (A") (A') (A')
                 (A') (A') (A") (A") (A') (A') (A')
 Beta  Orbitals:
       Occupied  (A') (A') (A') (A') (A") (A') (A')
       Virtual   (A') (A') (A") (A') (A') (A') (A") (A') (A') (A')
                 (A") (A') (A') (A") (A') (A') (A") (A') (A") (A')
                 (A") (A') (A') (A') (A') (A') (A") (A') (A") (A')
                 (A') (A') (A") (A") (A') (A") (A') (A') (A") (A')
                 (A') (A') (A') (A") (A") (A') (A') (A')
 Initial guess <Sx>= 0.0000 <Sy>= 0.0000 <Sz>= 0.5000 <S**2>= 0.7500 S= 0.5000
 ExpMin= 2.97D-02 ExpMax= 1.17D+04 ExpMxC= 4.01D+02 IAcc=3 IRadAn=         5 AccDes= 0.00D+00
 Harris functional with IExCor=  402 and IRadAn=       5 diagonalized for initial guess.
 HarFok:  IExCor=  402 AccDes= 0.00D+00 IRadAn=         5 IDoV= 1 UseB2=F ITyADJ=14
 ICtDFT=  3500011 ScaDFX=  1.000000  1.000000  1.000000  1.000000
 FoFCou: FMM=F IPFlag=           0 FMFlag=      100000 FMFlg1=           0
         NFxFlg=           0 DoJE=T BraDBF=F KetDBF=T FulRan=T
         wScrn=  0.000000 ICntrl=       500 IOpCl=  0 I1Cent=   200000004 NGrid=           0
         NMat0=    1 NMatS0=      1 NMatT0=    0 NMatD0=    1 NMtDS0=    0 NMtDT0=    0
 Petite list used in FoFCou.
 Keep R1 and R2 ints in memory in symmetry-blocked form, NReq=2115463.
 Requested convergence on RMS density matrix=1.00D-08 within 128 cycles.
 Requested convergence on MAX density matrix=1.00D-06.
 Requested convergence on             energy=1.00D-06.
 No special actions if energy rises.
 SCF Done:  E(UB3LYP) =  -113.491460861     A.U. after   10 cycles
            NFock= 10  Conv=0.99D-09     -V/T= 1.9803
 <Sx>= 0.0000 <Sy>= 0.0000 <Sz>= 0.5000 <S**2>= 0.7500 S= 0.5000
 <L.S>= 0.000000000000E+00
 Annihilation of the first spin contaminant:
 S**2 before annihilation     0.7500,   after     0.7500
 Calling FoFJK, ICntrl=      2127 FMM=F ISym2X=1 I1Cent= 0 IOpClX= 1 NMat=1 NMatS=1 NMatT=0.
 ***** Axes restored to original set *****
 -------------------------------------------------------------------
 Center     Atomic                   Forces (Hartrees/Bohr)
 Number     Number              X              Y              Z
 -------------------------------------------------------------------
      1        6           0.582062944   -1.731564961    0.000000000
      2        8          -0.582082124    1.731590955    0.000000000
      3        1           0.000019180   -0.000025994    0.000000000
 -------------------------------------------------------------------
 Cartesian Forces:  Max     1.731590955 RMS     0.861158220

 GradGradGradGradGradGradGradGradGradGradGradGradGradGradGradGradGradGrad
 Berny optimization.
 FormGI is forming the generalized inverse of G from B-inverse, IUseBI=4.
 Internal  Forces:  Max     1.826777086 RMS     1.054690243
 Search for a saddle point.
 Step number   7 out of a maximum of   20
 All quantities printed in internal units (Hartrees-Bohrs-Radians)
 Update second derivatives using D2CorX and points    4    5    6    7
 The second derivative matrix:
                          R1        R2        A1
           R1          10.46013
           R2           0.19429  -0.03542
           A1           0.53548   0.13495   0.18561
 ITU=  0  0  0  0
     Eigenvalues ---   -0.09964   0.21815  10.49181
 Eigenvectors required to have negative eigenvalues:
                          R2        A1        R1
   1                    0.89984  -0.43618   0.00556
 QST in optimization variable space.
                        Tangent   TS vect  // Eig F  Eigenval
   1         R1         0.04563   0.00556   0.01012  -0.09964
   2         R2        -0.99242   0.89984  -0.10089   0.21815
   3         A1        -0.11407  -0.43618   1.82396  10.49181
 RFO step:  Lambda0=1.017265980D-03 Lambda=-3.26225303D-01.
 Linear search not attempted -- option 19 set.
 Iteration  1 RMS(Cart)=  0.10996043 RMS(Int)=  0.00729381
 Iteration  2 RMS(Cart)=  0.00841831 RMS(Int)=  0.00005214
 Iteration  3 RMS(Cart)=  0.00004409 RMS(Int)=  0.00000000
 Iteration  4 RMS(Cart)=  0.00000000 RMS(Int)=  0.00000000
 ClnCor:  largest displacement from symmetrization is 2.51D-15 for atom     3.
 Variable       Old X    -DE/DX   Delta X   Delta X   Delta X     New X
                                 (Linear)    (Quad)   (Total)
    R1        1.62342   1.82678   0.00000   0.17802   0.17802   1.80144
    R2       10.24086  -0.00003   0.00000  -0.16801  -0.16801  10.07284
    A1        2.91341   0.00003   0.00000  -0.11386  -0.11386   2.79955
         Item               Value     Threshold  Converged?
 Maximum Force            1.826777     0.000450     NO 
 RMS     Force            1.054690     0.000300     NO 
 Maximum Displacement     0.143229     0.001800     NO 
 RMS     Displacement     0.113615     0.001200     NO 
 Predicted change in Energy=-1.728385D-01
 GradGradGradGradGradGradGradGradGradGradGradGradGradGradGradGradGradGrad

                          Input orientation:                          
 ---------------------------------------------------------------------
 Center     Atomic      Atomic             Coordinates (Angstroms)
 Number     Number       Type             X           Y           Z
 ---------------------------------------------------------------------
      1          6           0        0.291465   -0.865092    0.000000
      2          8           0        0.080372    0.064523    0.000000
      3          1           0       -2.775059    4.565503    0.000000
 ---------------------------------------------------------------------
                    Distance matrix (angstroms):
                    1          2          3
     1  C    0.000000
     2  O    0.953281   0.000000
     3  H    6.236580   5.330320   0.000000
 Stoichiometry    CHO(2)
 Framework group  CS[SG(CHO)]
 Deg. of freedom     3
 Full point group                 CS      NOp   2
 Largest Abelian subgroup         CS      NOp   2
 Largest concise Abelian subgroup C1      NOp   1
                         Standard orientation:                         
 ---------------------------------------------------------------------
 Center     Atomic      Atomic             Coordinates (Angstroms)
 Number     Number       Type             X           Y           Z
 ---------------------------------------------------------------------
      1          6           0        0.119190   -0.906738    0.000000
      2          8           0        0.119190    0.046543    0.000000
      3          1           0       -1.668660    5.068086    0.000000
 ---------------------------------------------------------------------
 Rotational constants (GHZ):         978.4324860          13.4737960          13.2907715
 Standard basis: Aug-CC-pVDZ (5D, 7F)
 There are    43 symmetry adapted cartesian basis functions of A'  symmetry.
 There are    16 symmetry adapted cartesian basis functions of A"  symmetry.
 There are    39 symmetry adapted basis functions of A'  symmetry.
 There are    16 symmetry adapted basis functions of A"  symmetry.
    55 basis functions,    97 primitive gaussians,    59 cartesian basis functions
     8 alpha electrons        7 beta electrons
       nuclear repulsion energy        27.9486678185 Hartrees.
 NAtoms=    3 NActive=    3 NUniq=    3 SFac= 1.00D+00 NAtFMM=   60 NAOKFM=F Big=F
 Integral buffers will be    131072 words long.
 Raffenetti 2 integral format.
 Two-electron integral symmetry is turned on.
 One-electron integrals computed using PRISM.
 NBasis=    55 RedAO= T EigKep=  2.04D-03  NBF=    39    16
 NBsUse=    55 1.00D-06 EigRej= -1.00D+00 NBFU=    39    16
 Initial guess from the checkpoint file:  "C:\Calculation\transition states\CO(1)H(1)aug-cc-pvdz.chk"
 B after Tr=     0.000000    0.000000    0.000000
         Rot=    0.998858    0.000000    0.000000   -0.047784 Ang=  -5.48 deg.
 Initial guess orbital symmetries:
 Alpha Orbitals:
       Occupied  (A') (A') (A') (A') (A") (A') (A') (A')
       Virtual   (A') (A') (A") (A') (A') (A") (A') (A') (A') (A")
                 (A') (A") (A') (A') (A") (A') (A') (A") (A') (A")
                 (A') (A') (A') (A') (A") (A') (A') (A") (A') (A')
                 (A") (A') (A') (A") (A') (A") (A') (A") (A') (A')
                 (A') (A") (A') (A") (A') (A') (A')
 Beta  Orbitals:
       Occupied  (A') (A') (A') (A') (A") (A') (A')
       Virtual   (A') (A') (A') (A") (A') (A') (A") (A') (A') (A')
                 (A") (A') (A") (A') (A') (A") (A') (A') (A") (A')
                 (A") (A') (A') (A') (A') (A") (A') (A') (A") (A')
                 (A') (A") (A') (A") (A') (A') (A") (A') (A") (A')
                 (A') (A') (A") (A') (A") (A') (A') (A')
 Initial guess <Sx>= 0.0000 <Sy>= 0.0000 <Sz>= 0.5000 <S**2>= 0.7500 S= 0.5000
 ExpMin= 2.97D-02 ExpMax= 1.17D+04 ExpMxC= 4.01D+02 IAcc=3 IRadAn=         5 AccDes= 0.00D+00
 Harris functional with IExCor=  402 and IRadAn=       5 diagonalized for initial guess.
 HarFok:  IExCor=  402 AccDes= 0.00D+00 IRadAn=         5 IDoV= 1 UseB2=F ITyADJ=14
 ICtDFT=  3500011 ScaDFX=  1.000000  1.000000  1.000000  1.000000
 FoFCou: FMM=F IPFlag=           0 FMFlag=      100000 FMFlg1=           0
         NFxFlg=           0 DoJE=T BraDBF=F KetDBF=T FulRan=T
         wScrn=  0.000000 ICntrl=       500 IOpCl=  0 I1Cent=   200000004 NGrid=           0
         NMat0=    1 NMatS0=      1 NMatT0=    0 NMatD0=    1 NMtDS0=    0 NMtDT0=    0
 Petite list used in FoFCou.
 Keep R1 and R2 ints in memory in symmetry-blocked form, NReq=2115463.
 Requested convergence on RMS density matrix=1.00D-08 within 128 cycles.
 Requested convergence on MAX density matrix=1.00D-06.
 Requested convergence on             energy=1.00D-06.
 No special actions if energy rises.
 SCF Done:  E(UB3LYP) =  -113.718498338     A.U. after   10 cycles
            NFock= 10  Conv=0.85D-09     -V/T= 1.9928
 <Sx>= 0.0000 <Sy>= 0.0000 <Sz>= 0.5000 <S**2>= 0.7500 S= 0.5000
 <L.S>= 0.000000000000E+00
 Annihilation of the first spin contaminant:
 S**2 before annihilation     0.7500,   after     0.7500
 Calling FoFJK, ICntrl=      2127 FMM=F ISym2X=1 I1Cent= 0 IOpClX= 1 NMat=1 NMatS=1 NMatT=0.
 ***** Axes restored to original set *****
 -------------------------------------------------------------------
 Center     Atomic                   Forces (Hartrees/Bohr)
 Number     Number              X              Y              Z
[...]
                 (A') (A") (A') (A") (A') (A') (A") (A") (A') (A')
                 (A') (A') (A') (A") (A') (A") (A') (A')
 The electronic state is 2-A'.
 Alpha  occ. eigenvalues --  -19.26315 -10.31490  -1.17647  -0.58706  -0.48325
 Alpha  occ. eigenvalues --   -0.48325  -0.38727  -0.32143
 Alpha virt. eigenvalues --   -0.04338  -0.04338   0.02103   0.04320   0.05574
 Alpha virt. eigenvalues --    0.06416   0.06722   0.14516   0.16425   0.16807
 Alpha virt. eigenvalues --    0.18192   0.18206   0.19467   0.25020   0.31010
 Alpha virt. eigenvalues --    0.31013   0.38898   0.46030   0.46043   0.54869
 Alpha virt. eigenvalues --    0.55848   0.56262   0.56977   0.69768   0.84996
 Alpha virt. eigenvalues --    0.85853   0.85853   0.96714   0.96809   1.18250
 Alpha virt. eigenvalues --    1.35972   1.35983   1.40415   1.40418   1.50503
 Alpha virt. eigenvalues --    1.50506   1.51295   1.70323   1.70392   1.87155
 Alpha virt. eigenvalues --    1.90358   2.64841   3.16078   3.16078   3.27859
 Alpha virt. eigenvalues --    3.27987   3.60926
  Beta  occ. eigenvalues --  -19.26315 -10.31490  -1.17646  -0.58706  -0.48325
  Beta  occ. eigenvalues --   -0.48325  -0.38727
  Beta virt. eigenvalues --   -0.04642  -0.04339  -0.04336   0.02710   0.05446
  Beta virt. eigenvalues --    0.06315   0.06400   0.09801   0.15049   0.16768
  Beta virt. eigenvalues --    0.16802   0.23156   0.26322   0.26324   0.27532
  Beta virt. eigenvalues --    0.31010   0.31014   0.38928   0.46025   0.46043
  Beta virt. eigenvalues --    0.55829   0.56238   0.56673   0.69744   0.75961
  Beta virt. eigenvalues --    0.85022   0.85853   0.85854   0.96705   0.96797
  Beta virt. eigenvalues --    1.18266   1.35971   1.35993   1.40415   1.40418
  Beta virt. eigenvalues --    1.70307   1.70318   1.74524   1.74544   1.74683
  Beta virt. eigenvalues --    1.87157   1.90381   2.64840   3.16078   3.16078
  Beta virt. eigenvalues --    3.27857   3.27982   3.60921
          Condensed to atoms (all electrons):
               1          2          3
     1  C    5.271262   0.594442  -0.000156
     2  O    0.594442   7.539779   0.000119
     3  H   -0.000156   0.000119   1.000150
          Atomic-Atomic Spin Densities.
               1          2          3
     1  C    0.000055  -0.000156  -0.000090
     2  O   -0.000156   0.000265   0.000019
     3  H   -0.000090   0.000019   1.000134
 Mulliken charges and spin densities:
               1          2
     1  C    0.134453  -0.000191
     2  O   -0.134339   0.000128
     3  H   -0.000113   1.000063
 Sum of Mulliken charges =   0.00000   1.00000
 Mulliken charges and spin densities with hydrogens summed into heavy atoms:
               1          2
     1  C    0.134453  -0.000191
     2  O   -0.134453   1.000191
 APT charges:
               1
     1  C    0.240311
     2  O   -0.240288
     3  H   -0.000024
 Sum of APT charges =   0.00000
 APT charges with hydrogens summed into heavy atoms:
               1
     1  C    0.240311
     2  O   -0.240311
 Electronic spatial extent (au):  <R**2>=            161.1200
 Charge=              0.0000 electrons
 Dipole moment (field-independent basis, Debye):
    X=              0.0018    Y=              0.0689    Z=              0.0000  Tot=              0.0689
 Quadrupole moment (field-independent basis, Debye-Ang):
   XX=            -11.7665   YY=            -13.8857   ZZ=            -11.7539
   XY=              0.0286   XZ=              0.0000   YZ=              0.0000
 Traceless Quadrupole moment (field-independent basis, Debye-Ang):
   XX=              0.7022   YY=             -1.4170   ZZ=              0.7148
   XY=              0.0286   XZ=              0.0000   YZ=              0.0000
 Octapole moment (field-independent basis, Debye-Ang**2):
  XXX=              6.1913  YYY=             -1.2297  ZZZ=              0.0000  XYY=              1.6669
  XXY=             -2.0227  XXZ=              0.0000  XZZ=              2.0463  YZZ=             -1.9612
  YYZ=              0.0000  XYZ=              0.0000
 Hexadecapole moment (field-independent basis, Debye-Ang**3):
 XXXX=            -91.1340 YYYY=           -243.2734 ZZZZ=            -11.7300 XXXY=             62.8353
 XXXZ=              0.0000 YYYX=             63.9723 YYYZ=              0.0000 ZZZX=              0.0000
 ZZZY=              0.0000 XXYY=            -54.6625 XXZZ=            -17.1101 YYZZ=            -41.0328
 XXYZ=              0.0000 YYXZ=              0.0000 ZZXY=             20.8565
 N-N= 2.365323825355D+01 E-N=-3.141727450917D+02  KE= 1.131679114787D+02
 Symmetry A'   KE= 1.091026447805D+02
 Symmetry A"   KE= 4.065266698222D+00
 Symmetry A'   SP= 1.000000000000D+00
 Symmetry A"   SP= 1.354489856559D-16
  Exact polarizability:      16.467      -0.164      20.383       0.000       0.000      16.372
 Approx polarizability:      19.692      -0.041      29.254       0.000       0.000      19.661
                          Isotropic Fermi Contact Couplings
        Atom                 a.u.       MegaHertz       Gauss      10(-4) cm-1
     1  C(13)              0.00000      -0.00303      -0.00108      -0.00101
     2  O(17)              0.00004      -0.02481      -0.00885      -0.00828
     3  H(1)               0.26735    1195.00032     426.40583     398.60920
 --------------------------------------------------------
       Center         ----  Spin Dipole Couplings  ----
                      3XX-RR        3YY-RR        3ZZ-RR
 --------------------------------------------------------
     1   Atom       -0.000153      0.000707     -0.000554
     2   Atom        0.000003      0.000904     -0.000908
     3   Atom        0.000000     -0.000002      0.000002
 --------------------------------------------------------
                        XY            XZ            YZ
 --------------------------------------------------------
     1   Atom       -0.000680      0.000000      0.000000
     2   Atom       -0.001299      0.000000      0.000000
     3   Atom        0.000002      0.000000      0.000000
 --------------------------------------------------------


 ---------------------------------------------------------------------------------
              Anisotropic Spin Dipole Couplings in Principal Axis System
 ---------------------------------------------------------------------------------

       Atom             a.u.   MegaHertz   Gauss  10(-4) cm-1        Axes

              Baa    -0.0006    -0.074    -0.027    -0.025  0.0000  0.0000  1.0000
     1 C(13)  Bbb    -0.0005    -0.071    -0.025    -0.024  0.8760  0.4823  0.0000
              Bcc     0.0011     0.145     0.052     0.048 -0.4823  0.8760  0.0000
 
              Baa    -0.0009     0.067     0.024     0.022  0.8147  0.5799  0.0000
     2 O(17)  Bbb    -0.0009     0.066     0.023     0.022  0.0000  0.0000  1.0000
              Bcc     0.0018    -0.132    -0.047    -0.044 -0.5799  0.8147  0.0000
 
              Baa     0.0000    -0.002    -0.001    -0.001 -0.5254  0.8509  0.0000
     3 H(1)   Bbb     0.0000     0.001     0.000     0.000  0.8509  0.5254  0.0000
              Bcc     0.0000     0.001     0.000     0.000  0.0000  0.0000  1.0000
 

 ---------------------------------------------------------------------------------

 Calling FoFJK, ICntrl=    100127 FMM=F ISym2X=1 I1Cent= 0 IOpClX= 1 NMat=1 NMatS=1 NMatT=0.
 Full mass-weighted force constant matrix:
 Low frequencies ---  -18.3768  -17.5500   -5.0431   -0.0023   -0.0020   -0.0012
 Low frequencies ---    2.4420    5.6595 2186.2754
 ******    1 imaginary frequencies (negative Signs) ****** 
 Diagonal vibrational polarizability:
        4.3463389       0.4529974       0.0000000
 Harmonic frequencies (cm**-1), IR intensities (KM/Mole), Raman scattering
 activities (A**4/AMU), depolarization ratios for plane and unpolarized
 incident light, reduced masses (AMU), force constants (mDyne/A),
 and normal coordinates:
                      1                      2                      3
                     A'                     A'                     A'
 Frequencies --    -16.5681                 3.1131              2186.2754
 Red. masses --      3.5972                 1.0679                13.4388
 Frc consts  --      0.0006                 0.0000                37.8459
 IR Inten    --      0.0174                 0.0010                79.2945
  Atom  AN      X      Y      Z        X      Y      Z        X      Y      Z
     1   6    -0.33   0.01   0.00     0.05  -0.03   0.00     0.00   0.80   0.00
     2   8     0.30   0.01   0.00    -0.01  -0.03   0.00     0.00  -0.60   0.00
     3   1    -0.88  -0.16   0.00    -0.47   0.88   0.00     0.00   0.00   0.00

 -------------------
 - Thermochemistry -
 -------------------
 Temperature   298.150 Kelvin.  Pressure   1.00000 Atm.
 Atom     1 has atomic number  6 and mass  12.00000
 Atom     2 has atomic number  8 and mass  15.99491
 Atom     3 has atomic number  1 and mass   1.00783
 Molecular mass:    29.00274 amu.
 Principal axes and moments of inertia in atomic units:
                           1         2         3
     Eigenvalues --     7.67520 146.34889 154.02410
           X           -0.44937   0.89335   0.00000
           Y            0.89335   0.44937   0.00000
           Z            0.00000   0.00000   1.00000
 This molecule is an asymmetric top.
 Rotational symmetry number  1.
 Rotational temperatures (Kelvin)     11.28490     0.59183     0.56234
 Rotational constants (GHZ):         235.13920    12.33177    11.71727
    1 imaginary frequencies ignored.
 Zero-point vibrational energy      13095.5 (Joules/Mol)
                                    3.12989 (Kcal/Mol)
 Warning -- explicit consideration of   1 degrees of freedom as
           vibrations may cause significant error
 Vibrational temperatures:      4.48  3145.56
          (Kelvin)
 
 Zero-point correction=                           0.004988 (Hartree/Particle)
 Thermal correction to Energy=                    0.008758
 Thermal correction to Enthalpy=                  0.009702
 Thermal correction to Gibbs Free Energy=        -0.022381
 Sum of electronic and zero-point Energies=           -113.826957
 Sum of electronic and thermal Energies=              -113.823187
 Sum of electronic and thermal Enthalpies=            -113.822243
 Sum of electronic and thermal Free Energies=         -113.854325
 
                     E (Thermal)             CV                S
                      KCal/Mol        Cal/Mol-Kelvin    Cal/Mol-Kelvin
 Total                    5.496              7.955             67.523
 Electronic               0.000              0.000              1.377
 Translational            0.889              2.981             36.028
 Rotational               0.889              2.981             19.787
 Vibrational              3.718              1.993             10.330
 Vibration     1          0.592              1.987             10.330
                       Q            Log10(Q)             Ln(Q)
 Total Bot       0.196934D+11         10.294320         23.703547
 Total V=0       0.387743D+13         12.588544         28.986193
 Vib (Bot)       0.340642D+00         -0.467702         -1.076924
 Vib (Bot)    1  0.665654D+02          1.823248          4.198184
 Vib (V=0)       0.670690D+02          1.826522          4.205722
 Vib (V=0)    1  0.670672D+02          1.826510          4.205696
 Electronic      0.200000D+01          0.301030          0.693147
 Translational   0.613921D+07          6.788112         15.630206
 Rotational      0.470847D+04          3.672880          8.457118
 ***** Axes restored to original set *****
 -------------------------------------------------------------------
 Center     Atomic                   Forces (Hartrees/Bohr)
 Number     Number              X              Y              Z
 -------------------------------------------------------------------
      1        6           0.000003563   -0.000178773    0.000000000
      2        8          -0.000005909    0.000179629    0.000000000
      3        1           0.000002346   -0.000000855    0.000000000
 -------------------------------------------------------------------
 Cartesian Forces:  Max     0.000179629 RMS     0.000084512
 FormGI is forming the generalized inverse of G from B-inverse, IUseBI=4.

 GradGradGradGradGradGradGradGradGradGradGradGradGradGradGradGradGradGrad
 Berny optimization.
 Internal  Forces:  Max     0.000178667 RMS     0.000103529
 Search for a saddle point.
 Step number   1 out of a maximum of    2
 All quantities printed in internal units (Hartrees-Bohrs-Radians)
 Swapping is turned off.
 Second derivative matrix not updated -- analytic derivatives used.
 The second derivative matrix:
                          R1        R2        A1
           R1           1.24017
           R2          -0.00001   0.00000
           A1           0.00003   0.00001   0.00000
 ITU=  0
     Eigenvalues ---   -0.00001   0.00001   1.24017
 Eigenvectors required to have negative eigenvalues:
                          A1        R2        R1
   1                    0.75018  -0.66123  -0.00003
 Angle between quadratic step and forces=  91.25 degrees.
 Linear search not attempted -- option 19 set.
 Maximum step size (   0.300) exceeded in Quadratic search.
    -- Step size scaled by   0.171
 Iteration  1 RMS(Cart)=  0.08943999 RMS(Int)=  0.05633948
 Iteration  2 RMS(Cart)=  0.04565015 RMS(Int)=  0.00000278
 Iteration  3 RMS(Cart)=  0.00000404 RMS(Int)=  0.00000000
 Iteration  4 RMS(Cart)=  0.00000000 RMS(Int)=  0.00000000
 ClnCor:  largest displacement from symmetrization is 5.96D-15 for atom     3.
 Variable       Old X    -DE/DX   Delta X   Delta X   Delta X     New X
                                 (Linear)    (Quad)   (Total)
    R1        2.14289   0.00018   0.00000   0.00003   0.00003   2.14292
    R2       10.46186   0.00000   0.00000   0.29758   0.29758  10.75944
    A1        2.52426   0.00002   0.00000  -0.03803  -0.03803   2.48623
         Item               Value     Threshold  Converged?
 Maximum Force            0.000179     0.000450     YES
 RMS     Force            0.000104     0.000300     YES
 Maximum Displacement     0.153070     0.001800     NO 
 RMS     Displacement     0.133310     0.001200     NO 
 Predicted change in Energy= 1.073085D-06
                           ----------------------------
                           ! Non-Optimized Parameters !
                           ! (Angstroms and Degrees)  !
 --------------------------                            --------------------------
 ! Name  Definition              Value          Derivative Info.                !
 --------------------------------------------------------------------------------
 ! R1    R(1,2)                  1.134          -DE/DX =    0.0002              !
 ! R2    R(2,3)                  5.6937         -DE/DX =    0.0                 !
 ! A1    A(1,2,3)              142.4506         -DE/DX =    0.0                 !
 --------------------------------------------------------------------------------
 GradGradGradGradGradGradGradGradGradGradGradGradGradGradGradGradGradGrad


 ----------------------------------------------------------------------

 Electric dipole moment (input orientation):
 (Debye = 10**-18 statcoulomb cm , SI units = C m)
                  (au)            (Debye)         (10**-30 SI)
   Tot        0.271001D-01      0.688815D-01      0.229764D+00
   x          0.124644D-02      0.316813D-02      0.105678D-01
   y          0.270714D-01      0.688086D-01      0.229521D+00
   z          0.000000D+00      0.000000D+00      0.000000D+00

 Dipole polarizability, Alpha (input orientation).
 (esu units = cm**3 , SI units = C**2 m**2 J**-1)
 Alpha(0;0):
               (au)            (10**-24 esu)      (10**-40 SI)
   iso        0.177407D+02      0.262891D+01      0.292505D+01
   aniso      0.397485D+01      0.589012D+00      0.655364D+00
   xx         0.164619D+02      0.243940D+01      0.271420D+01
   yx        -0.879241D-01     -0.130290D-01     -0.144967D-01
   yy         0.203882D+02      0.302122D+01      0.336156D+01
   zx         0.000000D+00      0.000000D+00      0.000000D+00
   zy         0.000000D+00      0.000000D+00      0.000000D+00
   zz         0.163722D+02      0.242610D+01      0.269940D+01

 ----------------------------------------------------------------------

 Dipole orientation:
     6          0.50926541         -0.02344796         -1.91782839
     8          0.45257725         -0.02083789          0.22431153
     1         -5.82055386          0.26799412          8.59180497

 Electric dipole moment (dipole orientation):
 (Debye = 10**-18 statcoulomb cm , SI units = C m)
                  (au)            (Debye)         (10**-30 SI)
   Tot        0.271001D-01      0.688815D-01      0.229764D+00
   x          0.000000D+00      0.000000D+00      0.000000D+00
   y          0.000000D+00      0.000000D+00      0.000000D+00
   z          0.271001D-01      0.688815D-01      0.229764D+00

 Dipole polarizability, Alpha (dipole orientation).
 (esu units = cm**3 , SI units = C**2 m**2 J**-1)
 Alpha(0;0):
               (au)            (10**-24 esu)      (10**-40 SI)
   iso        0.177407D+02      0.262891D+01      0.292505D+01
   aniso      0.397485D+01      0.589012D+00      0.655364D+00
   xx         0.164780D+02      0.244179D+01      0.271686D+01
   yx        -0.487484D-02     -0.722376D-03     -0.803752D-03
   yy         0.163724D+02      0.242614D+01      0.269944D+01
   zx        -0.267664D+00     -0.396638D-01     -0.441319D-01
   zy         0.123240D-01      0.182623D-02      0.203195D-02
   zz         0.203718D+02      0.301879D+01      0.335886D+01

 ----------------------------------------------------------------------
 Unable to Open any file for archive entry.
 1|1|UNPC-TABISEAL|Freq|UB3LYP|Aug-CC-pVDZ|C1H1O1(2)|17108|13-Jun-2023|
 0||#N Geom=AllCheck Guess=TCheck SCRF=Check GenChk UB3LYP/Aug-CC-pVDZ 
 Freq||Title Card Required||0,2|C,0.2228136756,-1.0262051858,0.|O,0.244
 953078,0.107547996,0.|H,-2.8709887537,4.6835921899,0.||Version=EM64W-G
 16RevC.01|State=2-A'|HF=-113.8319449|S2=0.75|S2-1=0.|S2A=0.75|RMSD=8.0
 84e-010|RMSF=8.451e-005|ZeroPoint=0.0049878|Thermal=0.0087577|ETot=-11
 3.8231872|HTot=-113.822243|GTot=-113.8543255|Dipole=0.0012464,0.027071
 4,0.|DipoleDeriv=-0.0125174,0.0143755,0.,0.0119708,0.7465615,0.,0.,0.,
 -0.0131097,0.0124273,-0.0141919,0.,-0.0118063,-0.7465205,0.,0.,0.,0.01
 32301,0.00009,-0.0001836,0.,-0.0001645,-0.000041,0.,0.,0.,-0.0001204|P
 olar=16.4618688,-0.0879241,20.3881839,0.,0.,16.3721532|Quadrupole=0.52
 22949,-1.0537331,0.5314382,-0.0095172,0.,0.|PG=CS [SG(C1H1O1)]|NImag=1
 ||0.00038776,0.02419253,1.23970131,0.,0.,-0.00008081,-0.00038568,-0.02
 418288,0.,0.00038268,-0.02419606,-1.23971055,0.,0.02418690,1.23972076,
 0.,0.,0.00007966,0.,0.,-0.00007830,-0.00000208,-0.00000965,0.,0.000003
 00,0.00000915,0.,-0.00000092,0.00000353,0.00000924,0.,-0.00000403,-0.0
 0001021,0.,0.00000050,0.00000096,0.,0.,0.00000115,0.,0.,-0.00000135,0.
 ,0.,0.00000020||-0.00000356,0.00017877,0.,0.00000591,-0.00017963,0.,-0
 .00000235,0.00000086,0.|||@
 The archive entry for this job was punched.


 SUCCESS-- IF YOU HAVE TRIED TO DO SOMETHING AND FAILED
           YOU ARE BETTER OFF THAN IF YOU HAD TRIED TO DO
           NOTHING AND SUCCEEDED.

                   -- FROM THE BACK OF A SUGAR PACKET
 Job cpu time:       0 days  0 hours  0 minutes 17.0 seconds.
 Elapsed time:       0 days  0 hours  0 minutes 14.3 seconds.
 File lengths (MBytes):  RWF=      6 Int=      0 D2E=      0 Chk=      1 Scr=      1
 Normal termination of Gaussian 16 at Tue Jun 13 17:12:28 2023.
